 Gaussian 09, Revision D.01,
 Gaussian 09:  AM64L-G09RevD.01 24-Apr-2013

 ----------------------------------------------------------------------
 #P wB97XD/def2tzvp opt=(tight) freq integral(Grid=ultrafine) # SCF(Max
 Cycle=380) 5d 7f GFPrint
 ----------------------------------------------------------------------

 ---------------------------------------
 The PBEPBE optimization and frequencies
 ---------------------------------------
 Symbolic Z-matrix:
 Charge =  0 Multiplicity = 1

 SCF Done:  E(RwB97XD) =  -230.902398215     A.U. after   14 cycles
 SCF Done:  E(RwB97XD) =  -230.902488974     A.U. after   10 cycles
 SCF Done:  E(RwB97XD) =  -230.902491399     A.U. after    8 cycles
 SCF Done:  E(RwB97XD) =  -230.902491831     A.U. after    8 cycles
 SCF Done:  E(RwB97XD) =  -230.902491854     A.U. after    7 cycles
 Optimization completed.
    -- Stationary point found.

 1\1\GINC-CN513-10-R\FOpt\RwB97XD\def2TZVP\C6H4\MINENKY\09-Jul-2021\0\\
 #P wB97XD/def2tzvp opt=(tight) freq integral(Grid=ultrafine) # SCF(Max
 Cycle=380) 5d 7f GFPrint\\The PBEPBE optimization and frequencies\\0,1
 \C,0.,0.6183143847,-1.2267230685\C,0.,-0.6183143847,-1.2267230685\C,0.
 ,1.4539866939,-0.1320420205\C,0.,-1.4539866939,-0.1320420205\C,0.,0.70
 00213561,1.0494890228\C,0.,-0.7000213561,1.0494890228\H,0.,2.534634522
 9,-0.1339467196\H,0.,-2.5346345229,-0.1339467196\H,0.,1.2222025007,1.9
 990527857\H,0.,-1.2222025007,1.9990527857\\Version=AM64L-G09RevD.01\St

 Normal termination of Gaussian 09 at Fri Jul  9 19:30:43 2021.

 ---------------------------------------------------------------------
 #P Geom=AllCheck Guess=TCheck SCRF=Check GenChk RwB97XD/def2TZVP Freq
 ---------------------------------------------------------------------

 Structure from the checkpoint file:  "m1_00_462-80-60_C6H4_wB97XD.chk"
 ---------------------------------------
 The PBEPBE optimization and frequencies
 ---------------------------------------
 Charge =  0 Multiplicity = 1

                         Standard orientation:
 ---------------------------------------------------------------------
 Center     Atomic      Atomic             Coordinates (Angstroms)
 Number     Number       Type             X           Y           Z
 ---------------------------------------------------------------------
      1          6           0        0.000000    0.618314   -1.227196
      2          6           0        0.000000   -0.618314   -1.227196
      3          6           0        0.000000    1.453987   -0.132515
      4          6           0        0.000000   -1.453987   -0.132515
      5          6           0        0.000000    0.700021    1.049017
      6          6           0        0.000000   -0.700021    1.049017
      7          1           0        0.000000    2.534635   -0.134419
      8          1           0        0.000000   -2.534635   -0.134419
      9          1           0        0.000000    1.222203    1.998580
     10          1           0        0.000000   -1.222203    1.998580
 ---------------------------------------------------------------------

 SCF Done:  E(RwB97XD) =  -230.902491854     A.U. after    1 cycles

 The electronic state is 1-A1.
 Alpha  occ. eigenvalues --  -10.32328 -10.32325 -10.30541 -10.30486 -10.29933
 Alpha  occ. eigenvalues --  -10.29736  -0.98272  -0.86535  -0.84880  -0.72025
 Alpha  occ. eigenvalues --   -0.68000  -0.60740  -0.55854  -0.55184  -0.48380
 Alpha  occ. eigenvalues --   -0.48184  -0.47611  -0.34942  -0.34829  -0.34810
 Alpha virt. eigenvalues --   -0.00579   0.03576   0.07152   0.12945   0.15308
 Alpha virt. eigenvalues --    0.17083   0.18624   0.21828   0.23897   0.25615
 Alpha virt. eigenvalues --    0.25770   0.27714   0.28712   0.30014   0.30271

 Mulliken charges:
               1
     1  C   -0.010673
     2  C   -0.010673
     3  C   -0.150700
     4  C   -0.150700
     5  C   -0.110723
     6  C   -0.110723
     7  H    0.140231
     8  H    0.140231
     9  H    0.131866
    10  H    0.131866
 Sum of Mulliken charges =   0.00000

 Dipole moment (field-independent basis, Debye):
    X=              0.0000    Y=              0.0000    Z=              1.7052  Tot=              1.7052
 Quadrupole moment (field-independent basis, Debye-Ang):
   XX=            -37.7405   YY=            -28.9440   ZZ=            -34.7201
   XY=              0.0000   XZ=              0.0000   YZ=              0.0000

  Exact polarizability:  36.601   0.000  81.200   0.000   0.000  69.145
 Approx polarizability:  43.603   0.000 107.756   0.000   0.000  84.094

                      1                      2                      3
                     B1                     B2                     A2
 Frequencies --    398.1573               409.6729               460.5450
 Red. masses --      2.6838                10.6188                 7.9990
 Frc consts  --      0.2507                 1.0500                 0.9996
 IR Inten    --      6.7386               123.5935                 0.0000

                      4                      5                      6
                     A2                     A1                     B1
 Frequencies --    615.9380               628.7904               762.4667
 Red. masses --      3.2819                 7.2507                 1.2302
 Frc consts  --      0.7336                 1.6891                 0.4214
 IR Inten    --      0.0000                 0.3673                85.2679

                      7                      8                      9
                     B2                     A2                     B1
 Frequencies --    852.4630               886.6896               945.0341
 Red. masses --      6.2160                 1.2682                 1.3781
 Frc consts  --      2.6614                 0.5875                 0.7252
 IR Inten    --     32.9634                 0.0000                 0.0045

                     10                     11                     12
                     A2                     A1                     A1
 Frequencies --    986.5190              1013.0302              1083.2332
 Red. masses --      1.3032                 2.2889                 4.4134
 Frc consts  --      0.7472                 1.3839                 3.0512
 IR Inten    --      0.0000                 9.0901                22.0759

                     13                     14                     15
                     B2                     A1                     B2
 Frequencies --   1122.9991              1172.0050              1279.7897
 Red. masses --      1.4263                 1.1986                 1.4363
 Frc consts  --      1.0598                 0.9700                 1.3860
 IR Inten    --      1.9582                 0.0308                 0.1068

                     16                     17                     18
                     A1                     B2                     A1
 Frequencies --   1321.7929              1445.0094              1501.3468
 Red. masses --      2.4021                 2.6693                 2.7123
 Frc consts  --      2.4727                 3.2838                 3.6021
 IR Inten    --      1.0613                 4.0753                 0.3382

                     19                     20                     21
                     B2                     A1                     B2
 Frequencies --   1502.0211              2059.6323              3192.7352
 Red. masses --      3.9629                11.2701                 1.0860
 Frc consts  --      5.2676                28.1681                 6.5222
 IR Inten    --     14.1806                 0.0949                 0.9232

                     22                     23                     24
                     A1                     B2                     A1
 Frequencies --   3208.4176              3229.6096              3233.1864
 Red. masses --      1.0917                 1.0943                 1.0965
 Frc consts  --      6.6210                 6.7248                 6.7534
 IR Inten    --      3.2205                19.0531                 5.8737

 - Thermochemistry -
 -------------------
 Temperature   298.150 Kelvin.  Pressure   1.00000 Atm.
 Atom     1 has atomic number  6 and mass  12.00000

 Molecular mass:    76.03130 amu.
 Principal axes and moments of inertia in atomic units:
                           1         2         3
     Eigenvalues --   253.13035 312.94777 566.07811
           X            0.00000   0.00000   1.00000
           Y            1.00000   0.00000   0.00000
           Z            0.00000   1.00000   0.00000
 This molecule is an asymmetric top.
 Rotational symmetry number  2.
 Rotational temperatures (Kelvin)      0.34217     0.27677     0.15301
 Rotational constants (GHZ):           7.12969     5.76691     3.18815
 Zero-point vibrational energy     199244.5 (Joules/Mol)
                                   47.62059 (Kcal/Mol)
 Warning -- explicit consideration of   4 degrees of freedom as
           vibrations may cause significant error
 Vibrational temperatures:    572.86   589.43   662.62   886.20   904.69
          (Kelvin)           1097.02  1226.50  1275.75  1359.69  1419.38
                             1457.52  1558.53  1615.74  1686.25  1841.33
                             1901.76  2079.04  2160.10  2161.07  2963.35
                             4593.63  4616.19  4646.68  4651.83

 Zero-point correction=                           0.075888 (Hartree/Particle)
 Thermal correction to Energy=                    0.080321
 Thermal correction to Enthalpy=                  0.081265
 Thermal correction to Gibbs Free Energy=         0.049220
 Sum of electronic and zero-point Energies=           -230.826604
 Sum of electronic and thermal Energies=              -230.822171
 Sum of electronic and thermal Enthalpies=            -230.821227
 Sum of electronic and thermal Free Energies=         -230.853272

                     E (Thermal)             CV                S
                      KCal/Mol        Cal/Mol-Kelvin    Cal/Mol-Kelvin
 Total                   50.402             16.515             67.444
 Electronic               0.000              0.000              0.000
 Translational            0.889              2.981             38.901
 Rotational               0.889              2.981             23.931
 Vibrational             48.625             10.553              4.611
 Vibration     1          0.764              1.474              0.969
 Vibration     2          0.774              1.449              0.928
 Vibration     3          0.818              1.338              0.765
 Vibration     4          0.976              0.998              0.423

 Optimization completed.
    -- Stationary point found.

 1\1\GINC-CN513-10-R\Freq\RwB97XD\def2TZVP\C6H4\MINENKY\09-Jul-2021\0\\
 #P Geom=AllCheck Guess=TCheck SCRF=Check GenChk RwB97XD/def2TZVP Freq\
 \The PBEPBE optimization and frequencies\\0,1\C,0.,0.6183143847,-1.226
 7230685\C,0.,-0.6183143847,-1.2267230685\C,0.,1.4539866939,-0.13204202
 05\C,0.,-1.4539866939,-0.1320420205\C,0.,0.7000213561,1.0494890228\C,0
 .,-0.7000213561,1.0494890228\H,0.,2.5346345229,-0.1339467196\H,0.,-2.5
 346345229,-0.1339467196\H,0.,1.2222025007,1.9990527857\H,0.,-1.2222025
 007,1.9990527857\\Version=AM64L-G09RevD.01\State=1-A1\HF=-230.9024919\

 Normal termination of Gaussian 09 at Fri Jul  9 19:33:19 2021.
