 Gaussian 09, Revision D.01,
 Gaussian 09:  AM64L-G09RevD.01 24-Apr-2013

 ----------------------------------------------------------------------
 #P wB97XD/def2tzvp opt=(tight) freq integral(Grid=ultrafine) # SCF(Max
 Cycle=380) 5d 7f GFPrint
 ----------------------------------------------------------------------

 ---------------------------------------
 The PBEPBE optimization and frequencies
 ---------------------------------------
 Symbolic Z-matrix:
 Charge =  0 Multiplicity = 1

 SCF Done:  E(RwB97XD) =  -233.420240187     A.U. after   13 cycles
 SCF Done:  E(RwB97XD) =  -233.420545405     A.U. after   10 cycles
 SCF Done:  E(RwB97XD) =  -233.420551826     A.U. after    8 cycles
 SCF Done:  E(RwB97XD) =  -233.420553164     A.U. after    8 cycles
 SCF Done:  E(RwB97XD) =  -233.420553392     A.U. after    7 cycles
 SCF Done:  E(RwB97XD) =  -233.420553401     A.U. after    6 cycles
 SCF Done:  E(RwB97XD) =  -233.420553399     A.U. after    6 cycles
 SCF Done:  E(RwB97XD) =  -233.420553398     A.U. after    5 cycles
 Optimization completed.
    -- Stationary point found.
 Normal termination of Gaussian 09 at Thu Sep 28 16:41:04 2023.

 ---------------------------------------------------------------------
 #P Geom=AllCheck Guess=TCheck SCRF=Check GenChk RwB97XD/def2TZVP Freq
 ---------------------------------------------------------------------

 Structure from the checkpoint file:  "m1_00_96-38-80_C6H8_wB97XD.chk"
 ---------------------------------------
 The PBEPBE optimization and frequencies
 ---------------------------------------
 Charge =  0 Multiplicity = 1

                         Standard orientation:
 ---------------------------------------------------------------------
 Center     Atomic      Atomic             Coordinates (Angstroms)
 Number     Number       Type             X           Y           Z
 ---------------------------------------------------------------------
      1          6           0        0.238383    0.791131    0.000000
      2          6           0        0.232236   -0.150156    1.169651
      3          6           0        0.232236   -0.150156   -1.169651
      4          6           0        0.232236   -1.414519    0.732850
      5          6           0        0.232236   -1.414519   -0.732850
      6          1           0        1.185685    1.348127    0.000000
      7          6           0       -0.914841    1.797130    0.000000
      8          1           0        0.226742    0.178691    2.199261
      9          1           0        0.226742    0.178691   -2.199261
     10          1           0        0.231553   -2.303668    1.347893
     11          1           0        0.231553   -2.303668   -1.347893
     12          1           0       -1.873187    1.275484    0.000000
     13          1           0       -0.872000    2.436439   -0.883180
     14          1           0       -0.872000    2.436439    0.883180
 ---------------------------------------------------------------------

 SCF Done:  E(RwB97XD) =  -233.420553398     A.U. after    1 cycles

 The electronic state is 1-A'.
 Alpha  occ. eigenvalues --  -10.29227 -10.27924 -10.27892 -10.27819 -10.27585
 Alpha  occ. eigenvalues --  -10.27583  -0.96434  -0.84730  -0.80366  -0.74022
 Alpha  occ. eigenvalues --   -0.63204  -0.62538  -0.60189  -0.53065  -0.49975
 Alpha  occ. eigenvalues --   -0.47917  -0.47070  -0.45215  -0.41900  -0.41885
 Alpha  occ. eigenvalues --   -0.38224  -0.29896
 Alpha virt. eigenvalues --    0.04651   0.12527   0.13873   0.15280   0.16131
 Alpha virt. eigenvalues --    0.16791   0.17784   0.18280   0.20055   0.21064
 Alpha virt. eigenvalues --    0.22265   0.24713   0.25562   0.28208   0.28608

 Mulliken charges:
               1
     1  C    0.113671
     2  C   -0.232334
     3  C   -0.232334
     4  C   -0.117444
     5  C   -0.117444
     6  H    0.095197
     7  C   -0.370917
     8  H    0.128141
     9  H    0.128141
    10  H    0.122884
    11  H    0.122884
    12  H    0.125825
    13  H    0.116866
    14  H    0.116866
 Sum of Mulliken charges =   0.00000

 Dipole moment (field-independent basis, Debye):
    X=             -0.0084    Y=              0.4759    Z=              0.0000  Tot=              0.4760
 Quadrupole moment (field-independent basis, Debye-Ang):
   XX=            -39.5306   YY=            -34.0547   ZZ=            -35.1207
   XY=              0.3056   XZ=              0.0000   YZ=              0.0000

  Exact polarizability:  48.990  -3.775  80.277   0.000   0.000  68.605
 Approx polarizability:  56.659  -0.335  87.709   0.000   0.000  75.857

                      1                      2                      3
                     A'                     A"                     A"
 Frequencies --    165.9876               258.3554               295.5587
 Red. masses --      2.9136                 1.0363                 2.3105
 Frc consts  --      0.0473                 0.0408                 0.1189
 IR Inten    --      1.1976                 0.0008                 0.1739

                      4                      5                      6
                     A'                     A"                     A'
 Frequencies --    548.5275               569.2226               721.1362
 Red. masses --      2.5689                 2.5805                 1.7644
 Frc consts  --      0.4554                 0.4926                 0.5406
 IR Inten    --      2.2330                 0.4261                53.0174

                      7                      8                      9
                     A"                     A'                     A"
 Frequencies --    739.8258               792.1995               817.9861
 Red. masses --      1.3003                 1.6150                 5.7147
 Frc consts  --      0.4193                 0.5972                 2.2529
 IR Inten    --      1.1277                49.9218                 3.7497

                     10                     11                     12
                     A'                     A"                     A"
 Frequencies --    884.0828               957.8232               976.1921
 Red. masses --      2.9156                 1.5770                 1.3689
 Frc consts  --      1.3427                 0.8524                 0.7686
 IR Inten    --      6.0201                 3.2075                 0.0879

                     13                     14                     15
                     A'                     A'                     A'
 Frequencies --    978.5450              1004.4082              1029.4664
 Red. masses --      1.2831                 2.0094                 1.5345
 Frc consts  --      0.7239                 1.1944                 0.9581
 IR Inten    --      0.0270                 3.3637                 6.1224

                     16                     17                     18
                     A'                     A"                     A"
 Frequencies --   1093.1775              1104.4934              1120.5895
 Red. masses --      1.7032                 1.2829                 1.1099
 Frc consts  --      1.1992                 0.9221                 0.8211
 IR Inten    --      5.5497                 9.4445                 1.0414

                     19                     20                     21
                     A'                     A"                     A'
 Frequencies --   1156.7858              1278.4353              1294.1586
 Red. masses --      1.5941                 1.6594                 1.5502
 Frc consts  --      1.2568                 1.5979                 1.5297
 IR Inten    --      0.3998                 0.2080                 1.4750

                     22                     23                     24
                     A"                     A'                     A'
 Frequencies --   1335.1507              1407.2635              1423.2172
 Red. masses --      1.8527                 1.3969                 1.6853
 Frc consts  --      1.9459                 1.6299                 2.0113
 IR Inten    --      0.1533                 2.8708                 6.0050

                     25                     26                     27
                     A"                     A'                     A'
 Frequencies --   1502.0644              1502.7220              1592.5779
 Red. masses --      1.0532                 1.0466                 6.6579
 Frc consts  --      1.4000                 1.3925                 9.9492
 IR Inten    --      4.7746                 5.9469                 2.6942

                     28                     29                     30
                     A"                     A'                     A'
 Frequencies --   1672.0898              3024.0497              3052.6907
 Red. masses --      5.6211                 1.0805                 1.0342
 Frc consts  --      9.2596                 5.8218                 5.6785
 IR Inten    --      0.0230                 7.2097                34.9313

                     31                     32                     33
                     A"                     A'                     A"
 Frequencies --   3128.6489              3133.1835              3214.7639
 Red. masses --      1.1029                 1.1034                 1.0856
 Frc consts  --      6.3609                 6.3820                 6.6103
 IR Inten    --     20.9714                22.5429                 1.3193

                     34                     35                     36
                     A'                     A"                     A'
 Frequencies --   3222.9994              3239.1412              3247.5097
 Red. masses --      1.0883                 1.1019                 1.1077
 Frc consts  --      6.6605                 6.8117                 6.8827
 IR Inten    --      9.4850                17.8329                 3.8782

 - Thermochemistry -
 -------------------
 Temperature   298.150 Kelvin.  Pressure   1.00000 Atm.
 Atom     1 has atomic number  6 and mass  12.00000

 Molecular mass:    80.06260 amu.
 Principal axes and moments of inertia in atomic units:
                           1         2         3
     Eigenvalues --   254.58705 503.09196 682.08321
           X           -0.28020   0.00000   0.95994
           Y            0.95994   0.00000   0.28020
           Z            0.00000   1.00000   0.00000
 This molecule is an asymmetric top.
 Rotational symmetry number  1.
 Rotational temperatures (Kelvin)      0.34021     0.17216     0.12698
 Rotational constants (GHZ):           7.08890     3.58730     2.64593
 Zero-point vibrational energy     319911.5 (Joules/Mol)
                                   76.46069 (Kcal/Mol)
 Warning -- explicit consideration of   5 degrees of freedom as
           vibrations may cause significant error
 Vibrational temperatures:    238.82   371.72   425.24   789.21   818.98
          (Kelvin)           1037.55  1064.44  1139.80  1176.90  1272.00
                             1378.09  1404.52  1407.91  1445.12  1481.17
                             1572.84  1589.12  1612.28  1664.35  1839.38
                             1862.00  1920.98  2024.74  2047.69  2161.13
                             2162.08  2291.36  2405.76  4350.93  4392.14
                             4501.42  4507.95  4625.32  4637.17  4660.40
                             4672.44

 Zero-point correction=                           0.121848 (Hartree/Particle)
 Thermal correction to Energy=                    0.127327
 Thermal correction to Enthalpy=                  0.128272
 Thermal correction to Gibbs Free Energy=         0.093278
 Sum of electronic and zero-point Energies=           -233.298706
 Sum of electronic and thermal Energies=              -233.293226
 Sum of electronic and thermal Enthalpies=            -233.292282
 Sum of electronic and thermal Free Energies=         -233.327275

                     E (Thermal)             CV                S
                      KCal/Mol        Cal/Mol-Kelvin    Cal/Mol-Kelvin
 Total                   79.899             20.765             73.650
 Electronic               0.000              0.000              0.000
 Translational            0.889              2.981             39.055
 Rotational               0.889              2.981             25.972
 Vibrational             78.122             14.803              8.623
 Vibration     1          0.624              1.884              2.480
 Vibration     2          0.667              1.749              1.673
 Vibration     3          0.690              1.682              1.442
 Vibration     4          0.904              1.143              0.547
 Vibration     5          0.925              1.098              0.506

 Optimization completed.
    -- Stationary point found.
 Normal termination of Gaussian 09 at Thu Sep 28 16:43:15 2023.
