 Gaussian 09, Revision D.01,
 Gaussian 09:  AM64L-G09RevD.01 24-Apr-2013

 ----------------------------------------------------------------------
 #P wB97XD/def2tzvp opt=(tight) freq integral(Grid=ultrafine) # SCF(Max
 Cycle=380) 5d 7f GFPrint
 ----------------------------------------------------------------------

 ---------------------------------------
 The PBEPBE optimization and frequencies
 ---------------------------------------
 Symbolic Z-matrix:
 Charge =  0 Multiplicity = 1

 SCF Done:  E(RwB97XD) =  -155.979634649     A.U. after   12 cycles
 SCF Done:  E(RwB97XD) =  -155.979665466     A.U. after    8 cycles
 SCF Done:  E(RwB97XD) =  -155.979666954     A.U. after    8 cycles
 SCF Done:  E(RwB97XD) =  -155.979667025     A.U. after    6 cycles
 Optimization completed.
    -- Stationary point found.

 1\1\GINC-CN514-05-R\FOpt\RwB97XD\def2TZVP\C4H6\MINENKY\09-Jul-2021\0\\
 #P wB97XD/def2tzvp opt=(tight) freq integral(Grid=ultrafine) # SCF(Max
 Cycle=380) 5d 7f GFPrint\\The PBEPBE optimization and frequencies\\0,1
 \C,0.,0.,0.5992482405\C,0.,0.,-0.5992482405\C,0.,0.,-2.0565022539\H,0.
 ,1.019518727,-2.4458334923\H,-0.8829291172,-0.5097593635,-2.4458334923
 \H,0.8829291172,-0.5097593635,-2.4458334923\C,0.,0.,2.0565022539\H,0.,
 1.019518727,2.4458334923\H,0.8829291172,-0.5097593635,2.4458334923\H,-
 0.8829291172,-0.5097593635,2.4458334923\\Version=AM64L-G09RevD.01\Stat

 Normal termination of Gaussian 09 at Fri Jul  9 19:26:28 2021.

 ---------------------------------------------------------------------
 #P Geom=AllCheck Guess=TCheck SCRF=Check GenChk RwB97XD/def2TZVP Freq
 ---------------------------------------------------------------------

 Structure from the checkpoint file:  "m1_00_503-17-30_C4H6_wB97XD.chk"
 ---------------------------------------
 The PBEPBE optimization and frequencies
 ---------------------------------------
 Charge =  0 Multiplicity = 1

                         Standard orientation:
 ---------------------------------------------------------------------
 Center     Atomic      Atomic             Coordinates (Angstroms)
 Number     Number       Type             X           Y           Z
 ---------------------------------------------------------------------
      1          6           0        0.000000    0.000000    0.599248
      2          6           0        0.000000    0.000000   -0.599248
      3          6           0        0.000000    0.000000   -2.056502
      4          1           0        0.000000    1.019519   -2.445833
      5          1           0       -0.882929   -0.509759   -2.445833
      6          1           0        0.882929   -0.509759   -2.445833
      7          6           0        0.000000    0.000000    2.056502
      8          1           0        0.000000    1.019519    2.445833
      9          1           0        0.882929   -0.509759    2.445833
     10          1           0       -0.882929   -0.509759    2.445833
 ---------------------------------------------------------------------

 SCF Done:  E(RwB97XD) =  -155.979667025     A.U. after    1 cycles

 The electronic state is 1-A1'.
 Alpha  occ. eigenvalues --  -10.29646 -10.29645 -10.27018 -10.26747  -0.88309
 Alpha  occ. eigenvalues --   -0.84277  -0.76410  -0.56608  -0.51912  -0.51884
 Alpha  occ. eigenvalues --   -0.51884  -0.50400  -0.50400  -0.33110  -0.33110
 Alpha virt. eigenvalues --    0.11828   0.12951   0.12951   0.13323   0.19176
 Alpha virt. eigenvalues --    0.19176   0.22019   0.22809   0.22809   0.22936
 Alpha virt. eigenvalues --    0.27830   0.29273   0.29273   0.30577   0.30577

 Mulliken charges:
               1
     1  C   -0.052744
     2  C   -0.052744
     3  C   -0.379609
     4  H    0.144118
     5  H    0.144118
     6  H    0.144118
     7  C   -0.379609
     8  H    0.144118
     9  H    0.144118
    10  H    0.144118
 Sum of Mulliken charges =   0.00000

 Dipole moment (field-independent basis, Debye):
    X=              0.0000    Y=              0.0000    Z=              0.0000  Tot=              0.0000
 Quadrupole moment (field-independent basis, Debye-Ang):
   XX=            -25.6050   YY=            -25.6050   ZZ=            -18.9284
   XY=              0.0000   XZ=              0.0000   YZ=              0.0000

  Exact polarizability:  35.065   0.000  35.067   0.000   0.000  69.566
 Approx polarizability:  38.114   0.000  38.114   0.000   0.000  69.759

                      1                      2                      3
                     A1"                    E'                     E'
 Frequencies --     24.1270               204.2316               204.4313
 Red. masses --      1.0078                 2.7945                 2.7945
 Frc consts  --      0.0003                 0.0687                 0.0688
 IR Inten    --      0.0000                13.0915                13.0881

                      4                      5                      6
                     E"                     E"                     A1'
 Frequencies --    416.9000               417.0182               730.8553
 Red. masses --      3.9290                 3.9291                 3.5868
 Frc consts  --      0.4023                 0.4026                 1.1288
 IR Inten    --      0.0000                 0.0000                 0.0000

                      7                      8                      9
                     E"                     E"                     E'
 Frequencies --   1053.7996              1053.8183              1068.0998
 Red. masses --      1.4342                 1.4342                 1.3716
 Frc consts  --      0.9384                 0.9384                 0.9219
 IR Inten    --      0.0000                 0.0000                 0.8343

                     10                     11                     12
                     E'                     A2"                    A2"
 Frequencies --   1068.1141              1177.5105              1420.6772
 Red. masses --      1.3716                 4.1048                 1.3222
 Frc consts  --      0.9220                 3.3533                 1.5723
 IR Inten    --      0.8352                 0.0318                 1.4003

                     13                     14                     15
                     A1'                    E"                     E"
 Frequencies --   1421.7438              1485.6220              1485.6222
 Red. masses --      1.2179                 1.0401                 1.0401
 Frc consts  --      1.4504                 1.3525                 1.3525
 IR Inten    --      0.0000                 0.0000                 0.0000

                     16                     17                     18
                     E'                     E'                     A1'
 Frequencies --   1485.6731              1485.6735              2396.7530
 Red. masses --      1.0376                 1.0376                11.8175
 Frc consts  --      1.3494                 1.3494                39.9967
 IR Inten    --     17.1019                17.0697                 0.0000

                     19                     20                     21
                     A1'                    A2"                    E'
 Frequencies --   3054.4867              3055.0532              3124.8744
 Red. masses --      1.0346                 1.0350                 1.1017
 Frc consts  --      5.6870                 5.6916                 6.3384
 IR Inten    --      0.0000                53.3770                17.1502

                     22                     23                     24
                     E'                     E"                     E"
 Frequencies --   3124.8797              3125.6068              3125.6121
 Red. masses --      1.1017                 1.1017                 1.1017
 Frc consts  --      6.3385                 6.3413                 6.3413
 IR Inten    --     17.0997                 0.0000                 0.0000

 - Thermochemistry -
 -------------------
 Temperature   298.150 Kelvin.  Pressure   1.00000 Atm.
 Atom     1 has atomic number  6 and mass  12.00000

 Molecular mass:    54.04695 amu.
 Principal axes and moments of inertia in atomic units:
                           1         2         3
     Eigenvalues --    22.44526 533.64324 533.64324
           X            0.00000   0.69496   0.71905
           Y            0.00000   0.71905  -0.69496
           Z            1.00000   0.00000   0.00000
 This molecule is a prolate symmetric top.
 Rotational symmetry number  6.
 Rotational temperatures (Kelvin)      3.85889     0.16231     0.16231
 Rotational constants (GHZ):          80.40636     3.38192     3.38192
 Zero-point vibrational energy     222572.3 (Joules/Mol)
                                   53.19606 (Kcal/Mol)
 Warning -- explicit consideration of   5 degrees of freedom as
           vibrations may cause significant error
 Vibrational temperatures:     34.71   293.84   294.13   599.83   600.00
          (Kelvin)           1051.54  1516.18  1516.21  1536.76  1536.78
                             1694.17  2044.04  2045.57  2137.48  2137.48
                             2137.55  2137.55  3448.39  4394.72  4395.53
                             4495.99  4496.00  4497.05  4497.05

 Zero-point correction=                           0.084773 (Hartree/Particle)
 Thermal correction to Energy=                    0.090461
 Thermal correction to Enthalpy=                  0.091405
 Thermal correction to Gibbs Free Energy=         0.057840
 Sum of electronic and zero-point Energies=           -155.894894
 Sum of electronic and thermal Energies=              -155.889206
 Sum of electronic and thermal Enthalpies=            -155.888262
 Sum of electronic and thermal Free Energies=         -155.921827

                     E (Thermal)             CV                S
                      KCal/Mol        Cal/Mol-Kelvin    Cal/Mol-Kelvin
 Total                   56.765             17.248             70.643
 Electronic               0.000              0.000              0.000
 Translational            0.889              2.981             37.884
 Rotational               0.889              2.981             19.813
 Vibrational             54.987             11.286             12.947
 Vibration     1          0.593              1.985              6.262
 Vibration     2          0.640              1.834              2.095
 Vibration     3          0.640              1.834              2.093
 Vibration     4          0.780              1.434              0.903
 Vibration     5          0.780              1.433              0.902

 Optimization completed.
    -- Stationary point found.

 1\1\GINC-CN514-05-R\Freq\RwB97XD\def2TZVP\C4H6\MINENKY\09-Jul-2021\0\\
 #P Geom=AllCheck Guess=TCheck SCRF=Check GenChk RwB97XD/def2TZVP Freq\
 \The PBEPBE optimization and frequencies\\0,1\C,0.,0.,0.5992482405\C,0
 .,0.,-0.5992482405\C,0.,0.,-2.0565022539\H,0.,1.019518727,-2.445833492
 3\H,-0.8829291172,-0.5097593635,-2.4458334923\H,0.8829291172,-0.509759
 3635,-2.4458334923\C,0.,0.,2.0565022539\H,0.,1.019518727,2.4458334923\
 H,0.8829291172,-0.5097593635,2.4458334923\H,-0.8829291172,-0.509759363
 5,2.4458334923\\Version=AM64L-G09RevD.01\State=1-A1'\HF=-155.979667\RM

 Normal termination of Gaussian 09 at Fri Jul  9 19:27:52 2021.
