 Gaussian 09, Revision D.01,
 Gaussian 09:  AM64L-G09RevD.01 24-Apr-2013

 ----------------------------------------------------------------------
 #P wB97XD/def2tzvp opt=(tight) freq integral(Grid=ultrafine) # SCF(Max
 Cycle=380) 5d 7f GFPrint
 ----------------------------------------------------------------------

 ---------------------------------------
 The PBEPBE optimization and frequencies
 ---------------------------------------
 Symbolic Z-matrix:
 Charge =  0 Multiplicity = 1

 SCF Done:  E(RwB97XD) =  -846.810535671     A.U. after   13 cycles
 SCF Done:  E(RwB97XD) =  -846.811007733     A.U. after   11 cycles
 SCF Done:  E(RwB97XD) =  -846.811031270     A.U. after    8 cycles
 SCF Done:  E(RwB97XD) =  -846.811033122     A.U. after    7 cycles
 SCF Done:  E(RwB97XD) =  -846.811033150     A.U. after    5 cycles
 SCF Done:  E(RwB97XD) =  -846.811033153     A.U. after    3 cycles
 Optimization completed.
    -- Stationary point found.
 Normal termination of Gaussian 09 at Fri Jul  9 20:54:28 2021.

 ---------------------------------------------------------------------
 #P Geom=AllCheck Guess=TCheck SCRF=Check GenChk RwB97XD/def2TZVP Freq
 ---------------------------------------------------------------------

 Structure from the checkpoint file:  "m1_00_53-70-3-C22H14_wB97XD.chk"
 ---------------------------------------
 The PBEPBE optimization and frequencies
 ---------------------------------------
 Charge =  0 Multiplicity = 1

                         Standard orientation:
 ---------------------------------------------------------------------
 Center     Atomic      Atomic             Coordinates (Angstroms)
 Number     Number       Type             X           Y           Z
 ---------------------------------------------------------------------
      1          6           0       -2.864195    0.301901    0.000000
      2          6           0       -3.519421    1.543767    0.000002
      3          6           0       -4.891087    1.628636    0.000002
      4          6           0       -3.653933   -0.865435   -0.000001
      5          6           0       -1.411717    0.174080    0.000000
      6          6           0       -5.053888   -0.758170   -0.000002
      7          6           0       -3.022084   -2.156227   -0.000002
      8          6           0       -5.669285    0.468323    0.000000
      9          6           0       -0.832351   -1.121102   -0.000001
     10          6           0       -0.551279    1.263818    0.000000
     11          6           0       -1.684006   -2.277910   -0.000002
     12          6           0        0.551279   -1.263818   -0.000001
     13          6           0        0.832351    1.121102    0.000000
     14          6           0        1.411717   -0.174080    0.000000
     15          6           0        1.684006    2.277910    0.000000
     16          6           0        2.864195   -0.301901    0.000000
     17          6           0        3.022084    2.156227    0.000000
     18          6           0        3.653933    0.865435    0.000001
     19          6           0        5.053888    0.758170    0.000001
     20          6           0        3.519421   -1.543767    0.000000
     21          6           0        5.669285   -0.468323    0.000001
     22          6           0        4.891087   -1.628636    0.000001
     23          1           0       -2.945060    2.459740    0.000003
     24          1           0       -5.368913    2.600075    0.000003
     25          1           0       -5.645526   -1.666216   -0.000003
     26          1           0       -3.654957   -3.035790   -0.000003
     27          1           0       -6.749507    0.537875    0.000000
     28          1           0       -0.946237    2.271193    0.000000
     29          1           0       -1.219429   -3.256879   -0.000002
     30          1           0        0.946237   -2.271193   -0.000001
     31          1           0        1.219429    3.256879    0.000000
     32          1           0        3.654957    3.035790    0.000001
     33          1           0        5.645526    1.666216    0.000001
     34          1           0        2.945060   -2.459740    0.000000
     35          1           0        6.749507   -0.537875    0.000001
     36          1           0        5.368913   -2.600075    0.000001
 ---------------------------------------------------------------------

 SCF Done:  E(RwB97XD) =  -846.811033153     A.U. after    1 cycles

 The electronic state is 1-A.
 Alpha  occ. eigenvalues --  -10.30339 -10.30337 -10.30304 -10.30303 -10.30063
 Alpha  occ. eigenvalues --  -10.30061 -10.29996 -10.29996 -10.29144 -10.29143
 Alpha  occ. eigenvalues --  -10.29117 -10.29114 -10.29091 -10.29090 -10.29055
 Alpha  occ. eigenvalues --  -10.29055 -10.29041 -10.29040 -10.28998 -10.28998
 Alpha  occ. eigenvalues --  -10.28937 -10.28937  -0.99950  -0.98294  -0.95694
 Alpha  occ. eigenvalues --   -0.92936  -0.90306  -0.89159  -0.86419  -0.86019
 Alpha  occ. eigenvalues --   -0.83955  -0.81981  -0.81166  -0.74659  -0.73382
 Alpha  occ. eigenvalues --   -0.71519  -0.71481  -0.69974  -0.67675  -0.65469
 Alpha  occ. eigenvalues --   -0.62964  -0.60912  -0.60640  -0.59433  -0.57502
 Alpha  occ. eigenvalues --   -0.56695  -0.55096  -0.53286  -0.52802  -0.52360
 Alpha  occ. eigenvalues --   -0.51503  -0.51465  -0.50996  -0.50506  -0.49607
 Alpha  occ. eigenvalues --   -0.49303  -0.48899  -0.46707  -0.46253  -0.45500
 Alpha  occ. eigenvalues --   -0.45185  -0.43089  -0.42306  -0.42040  -0.41368
 Alpha  occ. eigenvalues --   -0.40238  -0.39310  -0.38466  -0.35016  -0.34029
 Alpha  occ. eigenvalues --   -0.31462  -0.28947  -0.27409
 Alpha virt. eigenvalues --   -0.00287   0.00911   0.03658   0.06099   0.06151
 Alpha virt. eigenvalues --    0.10418   0.12018   0.12177   0.12431   0.12805
 Alpha virt. eigenvalues --    0.13934   0.14387   0.15858   0.16485   0.16621

 Mulliken charges:
               1
     1  C    0.060528
     2  C   -0.215193
     3  C   -0.106900
     4  C    0.128691
     5  C    0.171563
     6  C   -0.164136
     7  C   -0.203494
     8  C   -0.108586
     9  C    0.203998
    10  C   -0.291525
    11  C   -0.236683
    12  C   -0.291525
    13  C    0.203998
    14  C    0.171563
    15  C   -0.236683
    16  C    0.060528
    17  C   -0.203494
    18  C    0.128691
    19  C   -0.164136
    20  C   -0.215193
    21  C   -0.108586
    22  C   -0.106900
    23  H    0.107041
    24  H    0.115803
    25  H    0.109503
    26  H    0.105737
    27  H    0.117453
    28  H    0.102603
    29  H    0.103597
    30  H    0.102603
    31  H    0.103597
    32  H    0.105737
    33  H    0.109503
    34  H    0.107041
    35  H    0.117453
    36  H    0.115803
 Sum of Mulliken charges =   0.00000

 Dipole moment (field-independent basis, Debye):
    X=              0.0000    Y=              0.0000    Z=              0.0000  Tot=              0.0000
 Quadrupole moment (field-independent basis, Debye-Ang):
   XX=           -108.3564   YY=           -109.5446   ZZ=           -135.5883
   XY=             -0.2043   XZ=              0.0000   YZ=              0.0000

  Exact polarizability: 469.129  -6.602 255.507   0.000   0.000 116.078
 Approx polarizability: 440.388  -3.794 331.014   0.000   0.000 158.309

                      1                      2                      3
                      A                      A                      A
 Frequencies --     38.3495                56.4581               106.6022
 Red. masses --      5.2885                 4.2361                 4.1169
 Frc consts  --      0.0046                 0.0080                 0.0276
 IR Inten    --      0.1880                 0.2353                 0.0000

                      4                      5                      6
                      A                      A                      A
 Frequencies --    130.0821               132.4845               188.9825
 Red. masses --      5.1984                 4.5151                 3.9732
 Frc consts  --      0.0518                 0.0467                 0.0836
 IR Inten    --      0.2239                 0.0000                 0.9286

                      7                      8                      9
                      A                      A                      A
 Frequencies --    218.3414               221.0729               283.4592
 Red. masses --      4.3973                 6.2289                 3.6372
 Frc consts  --      0.1235                 0.1794                 0.1722
 IR Inten    --      4.8095                 0.0000                 0.0000

                     10                     11                     12
                      A                      A                      A
 Frequencies --    329.1289               336.0787               399.7610
 Red. masses --      4.7787                 5.7326                 3.1255
 Frc consts  --      0.3050                 0.3815                 0.2943
 IR Inten    --      0.0000                 0.0000                 0.0030

                     13                     14                     15
                      A                      A                      A
 Frequencies --    409.5833               440.1353               445.3472
 Red. masses --      5.0211                 2.9952                 2.9697
 Frc consts  --      0.4963                 0.3419                 0.3470
 IR Inten    --      3.6926                 0.0000                12.9540

                     16                     17                     18
                      A                      A                      A
 Frequencies --    465.7760               497.0762               511.6167
 Red. masses --      5.5771                 6.9671                 5.3592
 Frc consts  --      0.7129                 1.0143                 0.8265
 IR Inten    --      0.0000                 5.3629                 0.0000

                     19                     20                     21
                      A                      A                      A
 Frequencies --    530.6971               533.8741               551.4885
 Red. masses --      3.1163                 6.4109                 2.8529
 Frc consts  --      0.5171                 1.0766                 0.5112
 IR Inten    --      0.9567                 0.6801                13.3501

                     22                     23                     24
                      A                      A                      A
 Frequencies --    564.0299               566.9907               592.9008
 Red. masses --      3.5906                 6.4634                 3.1744
 Frc consts  --      0.6730                 1.2242                 0.6575
 IR Inten    --      0.0000                 0.0000                 0.0000

                     25                     26                     27
                      A                      A                      A
 Frequencies --    643.6160               667.7692               693.6955
 Red. masses --      7.1750                 6.3106                 3.3620
 Frc consts  --      1.7512                 1.6580                 0.9532
 IR Inten    --      0.0000                12.9573                10.4398

                     28                     29                     30
                      A                      A                      A
 Frequencies --    741.1261               746.4400               762.2587
 Red. masses --      2.5435                 6.3864                 5.7331
 Frc consts  --      0.8231                 2.0965                 1.9627
 IR Inten    --      0.0000                 0.0000                 1.7197

                     31                     32                     33
                      A                      A                      A
 Frequencies --    769.2499               770.9957               775.7040
 Red. masses --      1.2695                 1.3966                 5.7271
 Frc consts  --      0.4426                 0.4891                 2.0304
 IR Inten    --     70.4836                 0.0000                 0.0000

                     34                     35                     36
                      A                      A                      A
 Frequencies --    790.2090               819.5573               820.2913
 Red. masses --      5.9787                 1.7719                 1.8895
 Frc consts  --      2.1996                 0.7012                 0.7491
 IR Inten    --      4.2341                 0.0000                11.2596

                     37                     38                     39
                      A                      A                      A
 Frequencies --    839.9345               843.8855               901.5603
 Red. masses --      1.4895                 2.2095                 1.6730
 Frc consts  --      0.6191                 0.9271                 0.8012
 IR Inten    --      0.0000                60.3508                 0.3144

                     40                     41                     42
                      A                      A                      A
 Frequencies --    901.5631               904.0958               906.1791
 Red. masses --      3.7490                 4.5002                 1.7779
 Frc consts  --      1.7954                 2.1673                 0.8602
 IR Inten    --      6.5544                 0.0000                 0.0000

                     43                     44                     45
                      A                      A                      A
 Frequencies --    921.9591               931.4809               959.8331
 Red. masses --      1.7660                 2.3051                 6.0122
 Frc consts  --      0.8844                 1.1784                 3.2634
 IR Inten    --     44.2111                 0.0000                 0.0000

                     46                     47                     48
                      A                      A                      A
 Frequencies --    974.1633               975.5527               994.0055
 Red. masses --      1.3560                 1.3667                 1.2932
 Frc consts  --      0.7582                 0.7663                 0.7528
 IR Inten    --      0.0000                 5.5739                 0.0093

                     49                     50                     51
                      A                      A                      A
 Frequencies --    995.5362              1000.4403              1001.5464
 Red. masses --      1.2989                 1.3089                 1.3080
 Frc consts  --      0.7585                 0.7719                 0.7730
 IR Inten    --      0.0000                 0.0000                 0.0220

                     52                     53                     54
                      A                      A                      A
 Frequencies --   1058.1565              1078.7612              1080.8174
 Red. masses --      4.9377                 2.1915                 2.0115
 Frc consts  --      3.2574                 1.5026                 1.3845
 IR Inten    --      5.2873                 0.0000                 8.3114

                     55                     56                     57
                      A                      A                      A
 Frequencies --   1141.4200              1145.1196              1174.3954
 Red. masses --      2.1345                 2.1283                 1.4448
 Frc consts  --      1.6385                 1.6443                 1.1741
 IR Inten    --      0.0000                 3.4243                 1.7420

                     58                     59                     60
                      A                      A                      A
 Frequencies --   1186.3711              1199.2202              1202.0824
 Red. masses --      1.2459                 1.2494                 1.2920
 Frc consts  --      1.0332                 1.0587                 1.0999
 IR Inten    --      0.0000                 0.0000                 0.1195

                     61                     62                     63
                      A                      A                      A
 Frequencies --   1212.5812              1239.3298              1247.7230
 Red. masses --      1.5124                 1.7301                 1.6876
 Frc consts  --      1.3102                 1.5656                 1.5479
 IR Inten    --      4.2565                 0.0000                 4.3307

                     64                     65                     66
                      A                      A                      A
 Frequencies --   1249.2719              1265.4425              1306.8457
 Red. masses --      2.2322                 1.8966                 1.7304
 Frc consts  --      2.0526                 1.7894                 1.7412
 IR Inten    --      0.0000                11.5384                 0.0000

                     67                     68                     69
                      A                      A                      A
 Frequencies --   1326.4650              1329.2822              1338.3424
 Red. masses --      1.5559                 2.3303                 2.5147
 Frc consts  --      1.6130                 2.4260                 2.6538
 IR Inten    --      0.0000                 0.0000                 4.6016

                     70                     71                     72
                      A                      A                      A
 Frequencies --   1368.1084              1385.6744              1386.4844
 Red. masses --      4.4884                 4.6868                 4.2792
 Frc consts  --      4.9498                 5.3021                 4.8466
 IR Inten    --      3.0886                 0.0000                 3.2707

                     73                     74                     75
                      A                      A                      A
 Frequencies --   1422.1652              1460.8109              1477.8879
 Red. masses --      2.9586                 1.9550                 2.2721
 Frc consts  --      3.5256                 2.4581                 2.9238
 IR Inten    --      0.4551                 0.0000                 6.9866

                     76                     77                     78
                      A                      A                      A
 Frequencies --   1497.0460              1498.9854              1508.7141
 Red. masses --      2.7744                 3.7819                 2.5016
 Frc consts  --      3.6634                 5.0067                 3.3549
 IR Inten    --      7.3565                 0.0000                22.2811

                     79                     80                     81
                      A                      A                      A
 Frequencies --   1518.6536              1565.8613              1567.2886
 Red. masses --      2.7823                 3.6107                 3.7224
 Frc consts  --      3.7807                 5.2161                 5.3874
 IR Inten    --      0.0000                16.9966                 0.0000

                     82                     83                     84
                      A                      A                      A
 Frequencies --   1625.6158              1640.7600              1674.7160
 Red. masses --      5.3555                 7.5884                 5.5445
 Frc consts  --      8.3384                12.0363                 9.1621
 IR Inten    --      3.6778                 0.0000                 0.0000

                     85                     86                     87
                      A                      A                      A
 Frequencies --   1685.8161              1695.7489              1706.0583
 Red. masses --      5.9622                 6.7005                 6.5812
 Frc consts  --      9.9833                11.3523                11.2860
 IR Inten    --      1.5223                 0.0000                 0.4301

                     88                     89                     90
                      A                      A                      A
 Frequencies --   1709.1768              3185.7560              3185.9075
 Red. masses --      6.6792                 1.0862                 1.0864
 Frc consts  --     11.4961                 6.4952                 6.4967
 IR Inten    --      0.0000                 0.1569                 0.0000

                     91                     92                     93
                      A                      A                      A
 Frequencies --   3189.7493              3189.7735              3200.2443
 Red. masses --      1.0870                 1.0870                 1.0893
 Frc consts  --      6.5160                 6.5162                 6.5728
 IR Inten    --      6.3280                 0.0000                11.1254

                     94                     95                     96
                      A                      A                      A
 Frequencies --   3200.4348              3205.6190              3205.6723
 Red. masses --      1.0891                 1.0973                 1.0971
 Frc consts  --      6.5728                 6.6434                 6.6427
 IR Inten    --      0.0000                 0.0000                41.7809

                     97                     98                     99
                      A                      A                      A
 Frequencies --   3209.6260              3210.9196              3218.0363
 Red. masses --      1.0913                 1.0917                 1.0949
 Frc consts  --      6.6239                 6.6315                 6.6805
 IR Inten    --     11.5450                 0.0000                38.9425

                    100                    101                    102
                      A                      A                      A
 Frequencies --   3218.3249              3231.7069              3232.1284
 Red. masses --      1.0950                 1.0922                 1.0920
 Frc consts  --      6.6824                 6.7210                 6.7214
 IR Inten    --      0.0000                29.2387                 0.0000

 - Thermochemistry -
 -------------------
 Temperature   298.150 Kelvin.  Pressure   1.00000 Atm.
 Atom     1 has atomic number  6 and mass  12.00000

 Molecular mass:   278.10955 amu.
 Principal axes and moments of inertia in atomic units:
                           1         2         3
     Eigenvalues --  1956.11341********************
           X            1.00000  -0.00175   0.00000
           Y            0.00175   1.00000   0.00000
           Z            0.00000   0.00000   1.00000
 This molecule is an asymmetric top.
 Rotational symmetry number  1.
 Warning -- assumption of classical behavior for rotation
           may cause significant error
 Rotational temperatures (Kelvin)      0.04428     0.00714     0.00615
 Rotational constants (GHZ):           0.92262     0.14884     0.12816
 Zero-point vibrational energy     763600.7 (Joules/Mol)
                                  182.50494 (Kcal/Mol)
 Warning -- explicit consideration of  24 degrees of freedom as
           vibrations may cause significant error
 Vibrational temperatures:     55.18    81.23   153.38   187.16   190.62
          (Kelvin)            271.90   314.14   318.07   407.83   473.54
                              483.54   575.17   589.30   633.26   640.75
                              670.15   715.18   736.10   763.55   768.12
                              793.47   811.51   815.77   853.05   926.02
                              960.77   998.07  1066.31  1073.96  1096.72
                             1106.78  1109.29  1116.06  1136.93  1179.16
                             1180.21  1208.48  1214.16  1297.14  1297.15
                             1300.79  1303.79  1326.49  1340.19  1380.98
                             1401.60  1403.60  1430.15  1432.35  1439.41
                             1441.00  1522.45  1552.09  1555.05  1642.25
                             1647.57  1689.69  1706.92  1725.41  1729.53
                             1744.63  1783.12  1795.19  1797.42  1820.69
                             1880.26  1908.48  1912.54  1925.57  1968.40
                             1993.67  1994.84  2046.18  2101.78  2126.35
                             2153.91  2156.70  2170.70  2185.00  2252.92
                             2254.98  2338.90  2360.68  2409.54  2425.51
                             2439.80  2454.63  2459.12  4583.59  4583.80
                             4589.33  4589.37  4604.43  4604.71  4612.17
                             4612.24  4617.93  4619.79  4630.03  4630.45
                             4649.70  4650.31

 Zero-point correction=                           0.290840 (Hartree/Particle)
 Thermal correction to Energy=                    0.305487
 Thermal correction to Enthalpy=                  0.306431
 Thermal correction to Gibbs Free Energy=         0.249000
 Sum of electronic and zero-point Energies=           -846.520193
 Sum of electronic and thermal Energies=              -846.505546
 Sum of electronic and thermal Enthalpies=            -846.504602
 Sum of electronic and thermal Free Energies=         -846.562033

                     E (Thermal)             CV                S
                      KCal/Mol        Cal/Mol-Kelvin    Cal/Mol-Kelvin
 Total                  191.696             63.042            120.874
 Electronic               0.000              0.000              0.000
 Translational            0.889              2.981             42.767
 Rotational               0.889              2.981             34.168
 Vibrational            189.919             57.080             43.940
 Vibration     1          0.594              1.982              5.343
 Vibration     2          0.596              1.975              4.577
 Vibration     3          0.605              1.944              3.330
 Vibration     4          0.612              1.923              2.945
 Vibration     5          0.613              1.921              2.910
 Vibration     6          0.633              1.855              2.238
 Vibration     7          0.646              1.813              1.973
 Vibration     8          0.648              1.809              1.950
 Vibration     9          0.682              1.704              1.513
 Vibration    10          0.712              1.617              1.264
 Vibration    11          0.717              1.603              1.231
 Vibration    12          0.766              1.471              0.964
 Vibration    13          0.774              1.449              0.928
 Vibration    14          0.800              1.383              0.826
 Vibration    15          0.805              1.371              0.810
 Vibration    16          0.823              1.326              0.749
 Vibration    17          0.853              1.257              0.665
 Vibration    18          0.867              1.224              0.630
 Vibration    19          0.886              1.182              0.586
 Vibration    20          0.889              1.175              0.579
 Vibration    21          0.907              1.136              0.541
 Vibration    22          0.920              1.109              0.516
 Vibration    23          0.923              1.103              0.510
 Vibration    24          0.950              1.047              0.462

 Optimization completed.
    -- Stationary point found.
 Normal termination of Gaussian 09 at Fri Jul  9 23:41:19 2021.
