 Gaussian 09, Revision D.01,
 Gaussian 09:  AM64L-G09RevD.01 24-Apr-2013

 ----------------------------------------------------------------------
 #P wB97XD/def2tzvp opt=(tight) freq integral(Grid=ultrafine) # SCF(Max
 Cycle=380) 5d 7f GFPrint
 ----------------------------------------------------------------------

 ---------------------------------------
 The PBEPBE optimization and frequencies
 ---------------------------------------
 Symbolic Z-matrix:
 Charge =  0 Multiplicity = 1

 SCF Done:  E(RwB97XD) =  -1229.13117176     A.U. after   15 cycles
 SCF Done:  E(RwB97XD) =  -1229.13393970     A.U. after   14 cycles
 SCF Done:  E(RwB97XD) =  -1229.13606495     A.U. after   13 cycles
 SCF Done:  E(RwB97XD) =  -1229.13695929     A.U. after   13 cycles
 SCF Done:  E(RwB97XD) =  -1229.13701559     A.U. after   12 cycles
 SCF Done:  E(RwB97XD) =  -1229.13702334     A.U. after   11 cycles
 SCF Done:  E(RwB97XD) =  -1229.13702451     A.U. after    8 cycles
 SCF Done:  E(RwB97XD) =  -1229.13702469     A.U. after    7 cycles
 SCF Done:  E(RwB97XD) =  -1229.13702470     A.U. after    6 cycles
 SCF Done:  E(RwB97XD) =  -1229.13702470     A.U. after    4 cycles
 Optimization completed.
    -- Stationary point found.
 Normal termination of Gaussian 09 at Sat Jul 27 20:27:30 2019.

 ---------------------------------------------------------------------
 #P Geom=AllCheck Guess=TCheck SCRF=Check GenChk RwB97XD/def2TZVP Freq
 ---------------------------------------------------------------------

 Structure from the checkpoint file:  "m1_00_120836-03-5-C32H16_wB97XD.chk"
 ---------------------------------------
 The PBEPBE optimization and frequencies
 ---------------------------------------
 Charge =  0 Multiplicity = 1

                         Standard orientation:
 ---------------------------------------------------------------------
 Center     Atomic      Atomic             Coordinates (Angstroms)
 Number     Number       Type             X           Y           Z
 ---------------------------------------------------------------------
      1          6           0        4.266567   -2.640749   -0.183355
      2          6           0        4.323661   -1.233638    0.074576
      3          6           0        3.127321   -0.477905    0.056125
      4          6           0        1.880827   -1.141843   -0.164414
      5          6           0        1.865659   -2.521529   -0.429473
      6          6           0        3.093739   -3.253283   -0.439295
      7          6           0        3.172886    0.920924    0.258963
      8          6           0        4.400822    1.511762    0.530144
      9          6           0        5.569134    0.762463    0.574938
     10          6           0        5.537095   -0.593373    0.338176
     11          6           0        0.663291   -0.415652   -0.109191
     12          6           0        0.708604    1.013757    0.007206
     13          6           0        1.933959    1.688458    0.148634
     14          6           0       -0.497058    1.741861   -0.113641
     15          6           0       -0.464302    3.148150   -0.138802
     16          6           0        0.764739    3.798052   -0.013698
     17          6           0        1.929596    3.087566    0.134864
     18          6           0       -1.755260    1.054118   -0.162669
     19          6           0       -2.957036    1.824153   -0.260274
     20          6           0       -2.870508    3.256767   -0.356769
     21          6           0       -1.687487    3.886901   -0.288713
     22          6           0       -1.811163   -0.341758   -0.083159
     23          6           0       -3.081008   -0.963298    0.150404
     24          6           0       -4.265428   -0.191781   -0.007709
     25          6           0       -4.171738    1.185479   -0.254955
     26          6           0       -0.565501   -1.082884   -0.240998
     27          6           0        0.637259   -3.136881   -0.710268
     28          6           0       -0.535217   -2.440042   -0.623955
     29          6           0       -5.533698   -0.807092    0.152105
     30          6           0       -5.640906   -2.106841    0.540149
     31          6           0       -4.472485   -2.842097    0.823905
     32          6           0       -3.239304   -2.289907    0.634531
     33          1           0       -1.453803   -2.935722   -0.896547
     34          1           0        0.624957   -4.179052   -1.006687
     35          1           0        2.859189    3.632853    0.213286
     36          1           0        0.792519    4.881008   -0.036331
     37          1           0       -1.631847    4.967842   -0.337754
     38          1           0       -3.792061    3.816718   -0.461268
     39          1           0       -5.081984    1.762271   -0.374919
     40          1           0       -6.420189   -0.206104   -0.012782
     41          1           0       -6.613825   -2.562597    0.672077
     42          1           0       -4.553265   -3.847714    1.216736
     43          1           0       -2.368023   -2.860034    0.917225
     44          1           0        6.449651   -1.176952    0.358477
     45          1           0        6.509324    1.253253    0.792056
     46          1           0        4.464750    2.573843    0.719639
     47          1           0        3.059263   -4.316185   -0.646900
     48          1           0        5.192987   -3.202569   -0.176598
 ---------------------------------------------------------------------

 SCF Done:  E(RwB97XD) =  -1229.13702470     A.U. after    1 cycles

 The electronic state is 1-A.
 Alpha  occ. eigenvalues --  -10.30895 -10.30642 -10.30570 -10.30499 -10.30461
 Alpha  occ. eigenvalues --  -10.30410 -10.30399 -10.30334 -10.30251 -10.30217
 Alpha  occ. eigenvalues --  -10.30170 -10.30156 -10.30108 -10.30101 -10.30070
 Alpha  occ. eigenvalues --  -10.30012 -10.29300 -10.29266 -10.29208 -10.29189
 Alpha  occ. eigenvalues --  -10.29183 -10.29132 -10.29121 -10.29103 -10.29086
 Alpha  occ. eigenvalues --  -10.29075 -10.29069 -10.29024 -10.29010 -10.28992
 Alpha  occ. eigenvalues --  -10.28978 -10.28921  -1.01693  -0.99573  -0.97798
 Alpha  occ. eigenvalues --   -0.96573  -0.94833  -0.93308  -0.90768  -0.90262
 Alpha  occ. eigenvalues --   -0.89375  -0.87109  -0.86113  -0.84740  -0.83585
 Alpha  occ. eigenvalues --   -0.83267  -0.82488  -0.79931  -0.75219  -0.74046
 Alpha  occ. eigenvalues --   -0.73695  -0.73184  -0.72092  -0.71530  -0.69225
 Alpha  occ. eigenvalues --   -0.66885  -0.66116  -0.65167  -0.63524  -0.63091
 Alpha  occ. eigenvalues --   -0.61490  -0.59811  -0.59082  -0.58990  -0.57373
 Alpha  occ. eigenvalues --   -0.56565  -0.55861  -0.55060  -0.54081  -0.53567
 Alpha  occ. eigenvalues --   -0.53009  -0.52317  -0.52096  -0.51676  -0.51039
 Alpha  occ. eigenvalues --   -0.50383  -0.50121  -0.49922  -0.49732  -0.48922
 Alpha  occ. eigenvalues --   -0.48168  -0.47810  -0.46803  -0.46631  -0.45924
 Alpha  occ. eigenvalues --   -0.45462  -0.44967  -0.44423  -0.43416  -0.42814
 Alpha  occ. eigenvalues --   -0.42481  -0.42031  -0.39924  -0.39576  -0.39507
 Alpha  occ. eigenvalues --   -0.38519  -0.37592  -0.35599  -0.34382  -0.32581
 Alpha  occ. eigenvalues --   -0.31378  -0.30233  -0.28632  -0.24959
 Alpha virt. eigenvalues --   -0.02733   0.00857   0.02388   0.02879   0.03802
 Alpha virt. eigenvalues --    0.05649   0.07423   0.10151   0.11123   0.11981
 Alpha virt. eigenvalues --    0.12381   0.12664   0.12786   0.13700   0.13837

 Mulliken charges:
               1
     1  C   -0.185750
     2  C    0.170594
     3  C   -0.052443
     4  C    0.008840
     5  C    0.144542
     6  C   -0.185171
     7  C    0.081606
     8  C   -0.190677
     9  C   -0.085128
    10  C   -0.178687
    11  C   -0.059079
    12  C   -0.079518
    13  C    0.178850
    14  C    0.011444
    15  C    0.175608
    16  C   -0.179387
    17  C   -0.201773
    18  C   -0.081557
    19  C    0.208596
    20  C   -0.209414
    21  C   -0.186456
    22  C    0.133329
    23  C    0.090995
    24  C    0.174187
    25  C   -0.301892
    26  C    0.203492
    27  C   -0.156372
    28  C   -0.354969
    29  C   -0.186215
    30  C   -0.112329
    31  C   -0.088886
    32  C   -0.379146
    33  H    0.189041
    34  H    0.107423
    35  H    0.091122
    36  H    0.103088
    37  H    0.105585
    38  H    0.105386
    39  H    0.103048
    40  H    0.111506
    41  H    0.117671
    42  H    0.118801
    43  H    0.187864
    44  H    0.107718
    45  H    0.112846
    46  H    0.101012
    47  H    0.105313
    48  H    0.105343
 Sum of Mulliken charges =   0.00000

 Dipole moment (field-independent basis, Debye):
    X=              0.0023    Y=              0.0375    Z=              0.0709  Tot=              0.0803
 Quadrupole moment (field-independent basis, Debye-Ang):
   XX=           -155.5804   YY=           -156.8297   ZZ=           -189.9557
   XY=             -0.2039   XZ=              1.3388   YZ=              0.2237

  Exact polarizability: 621.460  22.230 448.554  10.813   0.477 166.981
 Approx polarizability: 651.473  31.431 562.235  20.916   3.730 236.462

                      1                      2                      3
                      A                      A                      A
 Frequencies --     39.1138                58.2614                79.5786
 Red. masses --      5.5202                 5.0865                 4.9662
 Frc consts  --      0.0050                 0.0102                 0.0185
 IR Inten    --      0.1409                 0.0728                 0.5542

                      4                      5                      6
                      A                      A                      A
 Frequencies --    106.0117               122.4413               154.4914
 Red. masses --      4.5117                 5.0984                 4.8720
 Frc consts  --      0.0299                 0.0450                 0.0685
 IR Inten    --      0.9389                 1.7987                 1.4421

                      7                      8                      9
                      A                      A                      A
 Frequencies --    163.6969               205.8530               217.4738
 Red. masses --      4.7664                 4.8854                 4.1353
 Frc consts  --      0.0753                 0.1220                 0.1152
 IR Inten    --      0.2277                 0.0561                 0.4606

                     10                     11                     12
                      A                      A                      A
 Frequencies --    253.4308               268.2494               294.5740
 Red. masses --      5.4525                 4.9707                 5.4479
 Frc consts  --      0.2063                 0.2107                 0.2785
 IR Inten    --      1.0806                 0.6825                 0.9586

                     13                     14                     15
                      A                      A                      A
 Frequencies --    302.8228               325.3221               331.8737
 Red. masses --      5.1614                 4.8313                 6.4014
 Frc consts  --      0.2789                 0.3013                 0.4154
 IR Inten    --      1.3016                 1.7641                 1.5973

                     16                     17                     18
                      A                      A                      A
 Frequencies --    342.0358               359.2148               398.7002
 Red. masses --      4.7331                 5.4859                 6.0743
 Frc consts  --      0.3262                 0.4171                 0.5689
 IR Inten    --      0.3861                 1.7260                 0.0822

                     19                     20                     21
                      A                      A                      A
 Frequencies --    411.8803               434.4514               440.3413
 Red. masses --      5.8840                 5.3971                 4.4640
 Frc consts  --      0.5881                 0.6002                 0.5100
 IR Inten    --      2.4863                 0.8829                 0.4392

                     22                     23                     24
                      A                      A                      A
 Frequencies --    464.9335               469.4216               490.8221
 Red. masses --      6.4685                 3.8788                 4.9294
 Frc consts  --      0.8238                 0.5036                 0.6997
 IR Inten    --      0.7443                 0.6767                 1.4386

                     25                     26                     27
                      A                      A                      A
 Frequencies --    498.2781               525.3799               526.5076
 Red. masses --      3.9509                 4.0147                 4.5362
 Frc consts  --      0.5779                 0.6529                 0.7409
 IR Inten    --      0.7524                 1.5353                 0.5824

                     28                     29                     30
                      A                      A                      A
 Frequencies --    550.3906               555.3966               561.4039
 Red. masses --      4.4485                 4.5272                 4.4269
 Frc consts  --      0.7940                 0.8228                 0.8221
 IR Inten    --      2.1032                 2.4025                 3.9215

                     31                     32                     33
                      A                      A                      A
 Frequencies --    575.8606               586.9997               603.7630
 Red. masses --      4.7571                 3.8864                 7.6659
 Frc consts  --      0.9295                 0.7890                 1.6464
 IR Inten    --      2.2896                 4.8456                 2.7270

                     34                     35                     36
                      A                      A                      A
 Frequencies --    617.9025               627.1531               630.7983
 Red. masses --      7.2843                 4.3214                 3.9064
 Frc consts  --      1.6386                 1.0014                 0.9158
 IR Inten    --      0.0779                 3.7559                 3.9719

                     37                     38                     39
                      A                      A                      A
 Frequencies --    648.7530               655.8796               665.0963
 Red. masses --      5.7039                 4.3573                 5.1483
 Frc consts  --      1.4144                 1.1044                 1.3418
 IR Inten    --      7.0831                10.2832                10.2016

                     40                     41                     42
                      A                      A                      A
 Frequencies --    696.7691               710.1459               724.1787
 Red. masses --      6.4251                 3.3822                 6.3537
 Frc consts  --      1.8378                 1.0050                 1.9632
 IR Inten    --      1.3469                12.6522                 0.9044

                     43                     44                     45
                      A                      A                      A
 Frequencies --    756.2972               760.7342               775.9090
 Red. masses --      3.8268                 3.5678                 1.5019
 Frc consts  --      1.2896                 1.2165                 0.5327
 IR Inten    --      0.1475                 0.8265                15.3978

                     46                     47                     48
                      A                      A                      A
 Frequencies --    783.3809               784.4683               790.1635
 Red. masses --      2.8662                 2.6800                 1.3828
 Frc consts  --      1.0363                 0.9717                 0.5087
 IR Inten    --     24.2117                24.6863                 2.4680

                     49                     50                     51
                      A                      A                      A
 Frequencies --    808.9689               827.4269               842.7031
 Red. masses --      2.3599                 2.0454                 2.9710
 Frc consts  --      0.9099                 0.8250                 1.2431
 IR Inten    --      1.5972                 6.1337                 3.2216

                     52                     53                     54
                      A                      A                      A
 Frequencies --    843.4680               854.6757               862.6299
 Red. masses --      5.2187                 4.6438                 1.8166
 Frc consts  --      2.1875                 1.9986                 0.7964
 IR Inten    --      1.0513                 1.6505                43.4108

                     55                     56                     57
                      A                      A                      A
 Frequencies --    875.5161               890.1956               893.0587
 Red. masses --      1.9763                 2.0872                 2.1504
 Frc consts  --      0.8925                 0.9745                 1.0105
 IR Inten    --     19.2581                15.1916                17.1679

                     58                     59                     60
                      A                      A                      A
 Frequencies --    900.2387               919.6722               922.9454
 Red. masses --      5.4407                 4.7992                 4.1465
 Frc consts  --      2.5979                 2.3916                 2.0810
 IR Inten    --      4.8553                 6.5723                12.1538

                     61                     62                     63
                      A                      A                      A
 Frequencies --    929.0530               931.7304               933.2626
 Red. masses --      1.9587                 2.5092                 2.9028
 Frc consts  --      0.9961                 1.2834                 1.4896
 IR Inten    --     13.3796                 3.7522                 3.1425

                     64                     65                     66
                      A                      A                      A
 Frequencies --    975.4957               984.5243               988.2347
 Red. masses --      1.3451                 5.7941                 1.3519
 Frc consts  --      0.7542                 3.3089                 0.7779
 IR Inten    --      0.9553                 3.0276                 1.3809

                     67                     68                     69
                      A                      A                      A
 Frequencies --    991.0439               996.7809               999.4450
 Red. masses --      1.3276                 1.3099                 1.3169
 Frc consts  --      0.7683                 0.7668                 0.7751
 IR Inten    --      0.1762                 0.4235                 0.3662

                     70                     71                     72
                      A                      A                      A
 Frequencies --   1000.5615              1031.9856              1058.7852
 Red. masses --      1.3185                 1.3371                 3.3909
 Frc consts  --      0.7777                 0.8390                 2.2397
 IR Inten    --      0.3734                 1.1429                 1.6893

                     73                     74                     75
                      A                      A                      A
 Frequencies --   1073.4172              1078.9762              1109.1667
 Red. masses --      3.0789                 3.2299                 3.1221
 Frc consts  --      2.0901                 2.2154                 2.2631
 IR Inten    --      1.0507                 7.0411                 3.1778

                     76                     77                     78
                      A                      A                      A
 Frequencies --   1128.1602              1153.4960              1162.4175
 Red. masses --      1.8801                 2.4747                 1.5659
 Frc consts  --      1.4098                 1.9400                 1.2466
 IR Inten    --      1.4370                 0.5515                 0.4289

                     79                     80                     81
                      A                      A                      A
 Frequencies --   1175.9013              1181.4768              1193.1496
 Red. masses --      1.7908                 1.2684                 1.3737
 Frc consts  --      1.4590                 1.0431                 1.1522
 IR Inten    --      0.5284                 1.2976                 2.2418

                     82                     83                     84
                      A                      A                      A
 Frequencies --   1200.5377              1211.6399              1229.7027
 Red. masses --      1.2468                 1.3680                 1.5082
 Frc consts  --      1.0587                 1.1833                 1.3437
 IR Inten    --      4.2454                 3.8414                11.1987

                     85                     86                     87
                      A                      A                      A
 Frequencies --   1235.4994              1245.2809              1261.5160
 Red. masses --      1.5163                 2.2803                 1.9036
 Frc consts  --      1.3637                 2.0834                 1.7849
 IR Inten    --      2.7818                 0.5014                 1.1029

                     88                     89                     90
                      A                      A                      A
 Frequencies --   1270.6785              1276.2021              1281.3869
 Red. masses --      1.7737                 2.4110                 1.9110
 Frc consts  --      1.6873                 2.3136                 1.8487
 IR Inten    --      0.4965                 0.1763                 0.2044

                     91                     92                     93
                      A                      A                      A
 Frequencies --   1301.1640              1326.6762              1335.1254
 Red. masses --      2.2771                 2.3967                 3.1496
 Frc consts  --      2.2715                 2.4854                 3.3078
 IR Inten    --      0.9323                 1.8478                 9.3318

                     94                     95                     96
                      A                      A                      A
 Frequencies --   1360.5734              1362.1556              1375.7949
 Red. masses --      3.3760                 3.8616                 4.2716
 Frc consts  --      3.6822                 4.2215                 4.7637
 IR Inten    --      2.2334                 2.5853                 1.5296

                     97                     98                     99
                      A                      A                      A
 Frequencies --   1395.2887              1403.2691              1415.4397
 Red. masses --      5.3141                 5.0043                 5.6124
 Frc consts  --      6.0955                 5.8060                 6.6249
 IR Inten    --      2.4324                 5.4080                 2.6272

                    100                    101                    102
                      A                      A                      A
 Frequencies --   1422.1808              1427.1716              1454.6960
 Red. masses --      5.2637                 4.6043                 3.0746
 Frc consts  --      6.2727                 5.5254                 3.8334
 IR Inten    --      1.3665                 8.5519                 9.7921

                    103                    104                    105
                      A                      A                      A
 Frequencies --   1458.9807              1466.4658              1475.4322
 Red. masses --      3.1332                 2.4619                 2.3280
 Frc consts  --      3.9295                 3.1193                 2.9858
 IR Inten    --      8.6810                 7.7691                 2.0437

                    106                    107                    108
                      A                      A                      A
 Frequencies --   1492.9945              1500.7870              1517.4749
 Red. masses --      2.8156                 3.6270                 4.3378
 Frc consts  --      3.6977                 4.8132                 5.8852
 IR Inten    --      0.7553                 2.1304                 5.0749

                    109                    110                    111
                      A                      A                      A
 Frequencies --   1534.3410              1553.2586              1559.1889
 Red. masses --      4.3071                 3.9103                 4.0811
 Frc consts  --      5.9742                 5.5584                 5.8456
 IR Inten    --      1.5080                 2.3946                 0.5477

                    112                    113                    114
                      A                      A                      A
 Frequencies --   1579.0588              1597.7587              1617.4533
 Red. masses --      4.6868                 6.0323                 5.8570
 Frc consts  --      6.8852                 9.0730                 9.0279
 IR Inten    --      1.2619                 2.0404                 4.2614

                    115                    116                    117
                      A                      A                      A
 Frequencies --   1647.5810              1658.6703              1667.0038
 Red. masses --      7.3272                 6.9337                 6.1904
 Frc consts  --     11.7187                11.2392                10.1354
 IR Inten    --      1.4074                 7.5694                 2.8798

                    118                    119                    120
                      A                      A                      A
 Frequencies --   1678.1773              1684.9612              1699.1205
 Red. masses --      6.9532                 7.4659                 6.4145
 Frc consts  --     11.5375                12.4886                10.9110
 IR Inten    --      1.8239                 0.8857                 3.1872

                    121                    122                    123
                      A                      A                      A
 Frequencies --   1705.2505              1711.6060              3187.1991
 Red. masses --      6.8994                 7.3554                 1.0898
 Frc consts  --     11.8206                12.6959                 6.5225
 IR Inten    --      2.5096                 1.3176                 3.4698

                    124                    125                    126
                      A                      A                      A
 Frequencies --   3188.9103              3189.2433              3190.8313
 Red. masses --      1.0865                 1.0869                 1.0874
 Frc consts  --      6.5098                 6.5132                 6.5228
 IR Inten    --      0.5610                 0.1571                 4.6483

                    127                    128                    129
                      A                      A                      A
 Frequencies --   3193.0993              3194.6122              3195.1406
 Red. masses --      1.0872                 1.0893                 1.0900
 Frc consts  --      6.5309                 6.5501                 6.5564
 IR Inten    --      0.3333                14.5628                 5.5500

                    130                    131                    132
                      A                      A                      A
 Frequencies --   3202.0831              3208.2144              3208.7524
 Red. masses --      1.0903                 1.0967                 1.0975
 Frc consts  --      6.5864                 6.6505                 6.6578
 IR Inten    --     11.2778                15.1668                37.3207

                    133                    134                    135
                      A                      A                      A
 Frequencies --   3209.6944              3218.1778              3223.4010
 Red. masses --      1.0934                 1.0963                 1.0954
 Frc consts  --      6.6369                 6.6898                 6.7057
 IR Inten    --     27.4819                27.3860                 1.8082

                    136                    137                    138
                      A                      A                      A
 Frequencies --   3235.7502              3236.4105              3249.7159
 Red. masses --      1.0940                 1.0907                 1.0920
 Frc consts  --      6.7488                 6.7313                 6.7944
 IR Inten    --      1.8214                19.3898                 5.1658

 - Thermochemistry -
 -------------------
 Temperature   298.150 Kelvin.  Pressure   1.00000 Atm.
 Atom     1 has atomic number  6 and mass  12.00000

 Molecular mass:   400.12520 amu.
 Principal axes and moments of inertia in atomic units:
                           1         2         3
     Eigenvalues --  6823.16242********************
           X            0.99999   0.00379   0.00028
           Y           -0.00379   0.99999   0.00005
           Z           -0.00028  -0.00005   1.00000
 This molecule is an asymmetric top.
 Rotational symmetry number  1.
 Warning -- assumption of classical behavior for rotation
           may cause significant error
 Rotational temperatures (Kelvin)      0.01269     0.00562     0.00397
 Rotational constants (GHZ):           0.26450     0.11719     0.08269
 Zero-point vibrational energy     991668.0 (Joules/Mol)
                                  237.01435 (Kcal/Mol)
 Warning -- explicit consideration of  34 degrees of freedom as
           vibrations may cause significant error
 Vibrational temperatures:     56.28    83.83   114.50   152.53   176.17
          (Kelvin)            222.28   235.52   296.18   312.90   364.63
                              385.95   423.83   435.69   468.07   477.49
                              492.11   516.83   573.64   592.60   625.08
                              633.55   668.93   675.39   706.18   716.91
                              755.90   757.53   791.89   799.09   807.73
                              828.53   844.56   868.68   889.02   902.33
                              907.58   933.41   943.66   956.92  1002.49
                             1021.74  1041.93  1088.14  1094.53  1116.36
                             1127.11  1128.67  1136.87  1163.92  1190.48
                             1212.46  1213.56  1229.69  1241.13  1259.67
                             1280.79  1284.91  1295.24  1323.20  1327.91
                             1336.70  1340.55  1342.76  1403.52  1416.51
                             1421.85  1425.89  1434.14  1437.98  1439.58
                             1484.80  1523.35  1544.41  1552.40  1595.84
                             1623.17  1659.62  1672.46  1691.86  1699.88
                             1716.67  1727.30  1743.28  1769.27  1777.61
                             1791.68  1815.04  1828.22  1836.17  1843.63
                             1872.08  1908.79  1920.95  1957.56  1959.84
                             1979.46  2007.51  2018.99  2036.50  2046.20
                             2053.38  2092.98  2099.15  2109.91  2122.82
                             2148.08  2159.29  2183.31  2207.57  2234.79
                             2243.32  2271.91  2298.82  2327.15  2370.50
                             2386.45  2398.44  2414.52  2424.28  2444.65
                             2453.47  2462.62  4585.66  4588.12  4588.60
                             4590.89  4594.15  4596.33  4597.09  4607.08
                             4615.90  4616.67  4618.03  4630.23  4637.75
                             4655.52  4656.47  4675.61

 Zero-point correction=                           0.377706 (Hartree/Particle)
 Thermal correction to Energy=                    0.396976
 Thermal correction to Enthalpy=                  0.397921
 Thermal correction to Gibbs Free Energy=         0.331529
 Sum of electronic and zero-point Energies=          -1228.759318
 Sum of electronic and thermal Energies=             -1228.740048
 Sum of electronic and thermal Enthalpies=           -1228.739104
 Sum of electronic and thermal Free Energies=        -1228.805495

                     E (Thermal)             CV                S
                      KCal/Mol        Cal/Mol-Kelvin    Cal/Mol-Kelvin
 Total                  249.106             86.096            139.732
 Electronic               0.000              0.000              0.000
 Translational            0.889              2.981             43.851
 Rotational               0.889              2.981             36.082
 Vibrational            247.329             80.134             59.799
 Vibration     1          0.594              1.981              5.303
 Vibration     2          0.596              1.974              4.515
 Vibration     3          0.600              1.963              3.901
 Vibration     4          0.605              1.944              3.341
 Vibration     5          0.610              1.930              3.061
 Vibration     6          0.620              1.898              2.616
 Vibration     7          0.623              1.887              2.507
 Vibration     8          0.640              1.832              2.080
 Vibration     9          0.646              1.814              1.980
 Vibration    10          0.665              1.757              1.707
 Vibration    11          0.673              1.732              1.607
 Vibration    12          0.689              1.684              1.448
 Vibration    13          0.694              1.668              1.401
 Vibration    14          0.709              1.625              1.283
 Vibration    15          0.714              1.612              1.251
 Vibration    16          0.721              1.591              1.203
 Vibration    17          0.734              1.556              1.126
 Vibration    18          0.765              1.473              0.967
 Vibration    19          0.776              1.444              0.920
 Vibration    20          0.795              1.395              0.844
 Vibration    21          0.800              1.382              0.826
 Vibration    22          0.822              1.328              0.752
 Vibration    23          0.827              1.318              0.739
 Vibration    24          0.847              1.270              0.681
 Vibration    25          0.854              1.254              0.662
 Vibration    26          0.880              1.194              0.598
 Vibration    27          0.881              1.191              0.595
 Vibration    28          0.906              1.139              0.543
 Vibration    29          0.911              1.128              0.533
 Vibration    30          0.917              1.115              0.521
 Vibration    31          0.932              1.083              0.493
 Vibration    32          0.944              1.060              0.473
 Vibration    33          0.962              1.024              0.443
 Vibration    34          0.978              0.994              0.420

 Optimization completed.
    -- Stationary point found.
 Normal termination of Gaussian 09 at Sun Jul 28 08:21:07 2019.
