 Gaussian 09, Revision D.01,
 Gaussian 09:  AM64L-G09RevD.01 24-Apr-2013

 ----------------------------------------------------------------------
 #P wB97XD/def2tzvp opt=(tight) freq integral(Grid=ultrafine) # SCF(Max
 Cycle=380) 5d 7f GFPrint
 ----------------------------------------------------------------------

 ---------------------------------------
 The PBEPBE optimization and frequencies
 ---------------------------------------
 Symbolic Z-matrix:
 Charge =  0 Multiplicity = 1

 SCF Done:  E(RwB97XD) =  -1229.15084889     A.U. after   14 cycles
 SCF Done:  E(RwB97XD) =  -1229.15460932     A.U. after   12 cycles
 SCF Done:  E(RwB97XD) =  -1229.15470715     A.U. after    9 cycles
 SCF Done:  E(RwB97XD) =  -1229.15471469     A.U. after    8 cycles
 SCF Done:  E(RwB97XD) =  -1229.15471506     A.U. after    6 cycles
 SCF Done:  E(RwB97XD) =  -1229.15471507     A.U. after    5 cycles
 SCF Done:  E(RwB97XD) =  -1229.15471508     A.U. after    4 cycles
 SCF Done:  E(RwB97XD) =  -1229.15471508     A.U. after    4 cycles
 SCF Done:  E(RwB97XD) =  -1229.15471508     A.U. after    4 cycles
 Optimization completed.
    -- Stationary point found.
 Normal termination of Gaussian 09 at Sat Jul 27 21:35:15 2019.

 ---------------------------------------------------------------------
 #P Geom=AllCheck Guess=TCheck SCRF=Check GenChk RwB97XD/def2TZVP Freq
 ---------------------------------------------------------------------

 Structure from the checkpoint file:  "m1_00_190-72-7-C32H16_wB97XD.chk"
 ---------------------------------------
 The PBEPBE optimization and frequencies
 ---------------------------------------
 Charge =  0 Multiplicity = 1

                         Standard orientation:
 ---------------------------------------------------------------------
 Center     Atomic      Atomic             Coordinates (Angstroms)
 Number     Number       Type             X           Y           Z
 ---------------------------------------------------------------------
      1          6           0       -3.708000   -0.704459    0.000013
      2          6           0       -3.708000    0.704457    0.000015
      3          6           0       -2.449296   -1.425271   -0.000010
      4          6           0       -4.946202   -1.377332    0.000040
      5          6           0       -2.449297    1.425269   -0.000009
      6          6           0       -4.946201    1.377331    0.000044
      7          6           0       -1.242498    0.718289   -0.000012
      8          6           0       -1.242497   -0.718290   -0.000012
      9          6           0        0.000001   -1.418756   -0.000020
     10          6           0       -0.000001    1.418756   -0.000021
     11          6           0       -2.407807    2.841518   -0.000031
     12          6           0       -2.407804   -2.841521   -0.000029
     13          6           0        1.242497    0.718290   -0.000013
     14          6           0        1.242498   -0.718289   -0.000013
     15          6           0        2.449297   -1.425269   -0.000013
     16          6           0        2.449296    1.425271   -0.000012
     17          6           0       -0.000001    2.825308   -0.000038
     18          6           0        0.000001   -2.825308   -0.000035
     19          6           0        3.708000    0.704459    0.000014
     20          6           0        3.708000   -0.704457    0.000011
     21          6           0        4.946201   -1.377331    0.000039
     22          6           0        4.946203    1.377332    0.000047
     23          6           0        2.407804    2.841521   -0.000035
     24          6           0        2.407807   -2.841518   -0.000035
     25          6           0        1.230773    3.516179   -0.000049
     26          6           0       -1.230777    3.516178   -0.000046
     27          6           0        1.230777   -3.516178   -0.000047
     28          6           0       -1.230773   -3.516179   -0.000043
     29          6           0        6.135545   -0.698383    0.000069
     30          6           0        6.135546    0.698382    0.000074
     31          6           0       -6.135546   -0.698382    0.000066
     32          6           0       -6.135545    0.698383    0.000069
     33          1           0       -4.975399   -2.456562    0.000044
     34          1           0       -4.975396    2.456561    0.000053
     35          1           0       -3.325164    3.410384   -0.000040
     36          1           0       -3.325160   -3.410387   -0.000037
     37          1           0        4.975396   -2.456561    0.000042
     38          1           0        4.975399    2.456562    0.000059
     39          1           0        3.325160    3.410388   -0.000048
     40          1           0        3.325164   -3.410384   -0.000048
     41          1           0        1.222089    4.599574   -0.000070
     42          1           0       -1.222094    4.599573   -0.000065
     43          1           0        1.222094   -4.599573   -0.000065
     44          1           0       -1.222089   -4.599574   -0.000059
     45          1           0        7.070203   -1.244390    0.000091
     46          1           0        7.070204    1.244389    0.000101
     47          1           0       -7.070204   -1.244389    0.000087
     48          1           0       -7.070203    1.244390    0.000092
 ---------------------------------------------------------------------

 SCF Done:  E(RwB97XD) =  -1229.15471508     A.U. after    1 cycles

 The electronic state is 1-A.
 Alpha  occ. eigenvalues --  -10.30503 -10.30501 -10.30492 -10.30490 -10.30475
 Alpha  occ. eigenvalues --  -10.30473 -10.30436 -10.30431 -10.30428 -10.30426
 Alpha  occ. eigenvalues --  -10.30411 -10.30399 -10.30336 -10.30334 -10.29930
 Alpha  occ. eigenvalues --  -10.29929 -10.29171 -10.29171 -10.29170 -10.29168
 Alpha  occ. eigenvalues --  -10.29108 -10.29107 -10.29102 -10.29102 -10.29093
 Alpha  occ. eigenvalues --  -10.29093 -10.29093 -10.29093 -10.29026 -10.29026
 Alpha  occ. eigenvalues --  -10.28977 -10.28977  -1.01730  -0.99198  -0.98088
 Alpha  occ. eigenvalues --   -0.96986  -0.94260  -0.93503  -0.92073  -0.89441
 Alpha  occ. eigenvalues --   -0.88461  -0.87450  -0.85805  -0.84983  -0.84645
 Alpha  occ. eigenvalues --   -0.82972  -0.81809  -0.80534  -0.75388  -0.73784
 Alpha  occ. eigenvalues --   -0.73494  -0.73096  -0.73042  -0.71339  -0.68304
 Alpha  occ. eigenvalues --   -0.67212  -0.67127  -0.64141  -0.64132  -0.63192
 Alpha  occ. eigenvalues --   -0.62640  -0.59951  -0.59157  -0.57907  -0.57158
 Alpha  occ. eigenvalues --   -0.57055  -0.55127  -0.54931  -0.54593  -0.53772
 Alpha  occ. eigenvalues --   -0.52976  -0.52548  -0.52231  -0.52046  -0.50737
 Alpha  occ. eigenvalues --   -0.50472  -0.50324  -0.49969  -0.49689  -0.48579
 Alpha  occ. eigenvalues --   -0.48463  -0.48163  -0.47320  -0.47102  -0.45617
 Alpha  occ. eigenvalues --   -0.44855  -0.44328  -0.43968  -0.43538  -0.43507
 Alpha  occ. eigenvalues --   -0.42941  -0.41531  -0.41263  -0.39882  -0.39178
 Alpha  occ. eigenvalues --   -0.37776  -0.37310  -0.34887  -0.33992  -0.33256
 Alpha  occ. eigenvalues --   -0.32443  -0.30763  -0.27926  -0.25973
 Alpha virt. eigenvalues --   -0.01549   0.00246   0.01613   0.03713   0.04494
 Alpha virt. eigenvalues --    0.05055   0.07716   0.09330   0.09880   0.12205
 Alpha virt. eigenvalues --    0.12526   0.12526   0.13457   0.13641   0.14006

 Mulliken charges:
               1
     1  C    0.086353
     2  C    0.086355
     3  C    0.169194
     4  C   -0.202896
     5  C    0.169196
     6  C   -0.202896
     7  C   -0.044733
     8  C   -0.044734
     9  C   -0.010316
    10  C   -0.010316
    11  C   -0.207760
    12  C   -0.207760
    13  C   -0.044734
    14  C   -0.044733
    15  C    0.169196
    16  C    0.169194
    17  C    0.194196
    18  C    0.194196
    19  C    0.086353
    20  C    0.086355
    21  C   -0.202896
    22  C   -0.202896
    23  C   -0.207760
    24  C   -0.207760
    25  C   -0.198163
    26  C   -0.198163
    27  C   -0.198163
    28  C   -0.198163
    29  C   -0.100416
    30  C   -0.100416
    31  C   -0.100416
    32  C   -0.100416
    33  H    0.097270
    34  H    0.097270
    35  H    0.091646
    36  H    0.091646
    37  H    0.097270
    38  H    0.097270
    39  H    0.091646
    40  H    0.091646
    41  H    0.102449
    42  H    0.102449
    43  H    0.102449
    44  H    0.102449
    45  H    0.115116
    46  H    0.115116
    47  H    0.115116
    48  H    0.115116
 Sum of Mulliken charges =   0.00000

 Dipole moment (field-independent basis, Debye):
    X=              0.0000    Y=              0.0000    Z=              0.0000  Tot=              0.0000
 Quadrupole moment (field-independent basis, Debye-Ang):
   XX=           -153.9212   YY=           -155.1110   ZZ=           -191.8598
   XY=              0.0000   XZ=              0.0000   YZ=              0.0000

  Exact polarizability: 633.612   0.000 424.262   0.000   0.000 154.417
 Approx polarizability: 645.455   0.000 543.095   0.000   0.000 221.616

                      1                      2                      3
                      A                      A                      A
 Frequencies --     24.6011                56.4256                63.4949
 Red. masses --      5.5498                 4.3377                 4.8664
 Frc consts  --      0.0020                 0.0081                 0.0116
 IR Inten    --      0.0548                 0.0000                 0.0000

                      4                      5                      6
                      A                      A                      A
 Frequencies --     82.5367               109.7249               113.4582
 Red. masses --      3.6420                 5.0521                 3.6361
 Frc consts  --      0.0146                 0.0358                 0.0276
 IR Inten    --      0.0000                 4.2631                 0.0000

                      7                      8                      9
                      A                      A                      A
 Frequencies --    182.1078               190.3498               193.8263
 Red. masses --      5.4768                 4.4452                 5.5756
 Frc consts  --      0.1070                 0.0949                 0.1234
 IR Inten    --      0.0218                 0.0000                 0.8648

                     10                     11                     12
                      A                      A                      A
 Frequencies --    258.6210               273.8190               277.1878
 Red. masses --      4.1863                 5.0674                 7.7937
 Frc consts  --      0.1650                 0.2239                 0.3528
 IR Inten    --      0.0000                 0.0000                 0.0000

                     13                     14                     15
                      A                      A                      A
 Frequencies --    296.8072               304.8532               341.8714
 Red. masses --      3.8884                 5.0815                 4.9238
 Frc consts  --      0.2018                 0.2782                 0.3391
 IR Inten    --      0.9658                 0.0000                 0.0000

                     16                     17                     18
                      A                      A                      A
 Frequencies --    353.2030               362.1918               376.9467
 Red. masses --      8.0897                 4.5959                 6.4577
 Frc consts  --      0.5946                 0.3552                 0.5406
 IR Inten    --      0.0000                 0.0000                 1.0330

                     19                     20                     21
                      A                      A                      A
 Frequencies --    425.3426               426.6315               430.7920
 Red. masses --      5.4636                 7.0417                 3.7128
 Frc consts  --      0.5824                 0.7551                 0.4060
 IR Inten    --      0.0410                 2.8542                 0.0000

                     22                     23                     24
                      A                      A                      A
 Frequencies --    432.9631               460.4552               503.6249
 Red. masses --      7.7568                 3.2477                 3.2272
 Frc consts  --      0.8567                 0.4057                 0.4823
 IR Inten    --      0.0000                14.4915                 0.0000

                     25                     26                     27
                      A                      A                      A
 Frequencies --    505.3071               510.8119               532.4120
 Red. masses --      4.1295                 4.7943                 3.3910
 Frc consts  --      0.6212                 0.7371                 0.5663
 IR Inten    --      0.0000                 0.0000                 0.0000

                     28                     29                     30
                      A                      A                      A
 Frequencies --    533.2585               564.7593               568.7768
 Red. masses --      6.0818                 6.2570                 3.8989
 Frc consts  --      1.0190                 1.1758                 0.7431
 IR Inten    --      0.0000                 1.2007                11.4467

                     31                     32                     33
                      A                      A                      A
 Frequencies --    574.5097               605.6329               613.4177
 Red. masses --      4.1221                 7.7878                 7.0934
 Frc consts  --      0.8016                 1.6830                 1.5726
 IR Inten    --      0.0000                 8.2307                 0.0000

                     34                     35                     36
                      A                      A                      A
 Frequencies --    615.1808               628.0099               635.6707
 Red. masses --      3.0245                 7.2744                 4.9072
 Frc consts  --      0.6744                 1.6904                 1.1683
 IR Inten    --      0.1238                 0.0000                 3.8360

                     37                     38                     39
                      A                      A                      A
 Frequencies --    638.8554               670.6762               682.2046
 Red. masses --      4.4186                 8.5252                 3.7744
 Frc consts  --      1.0625                 2.2593                 1.0350
 IR Inten    --      0.0000                 0.0000                 0.0000

                     40                     41                     42
                      A                      A                      A
 Frequencies --    683.5854               697.8077               724.1755
 Red. masses --      6.2780                 2.2436                 6.2283
 Frc consts  --      1.7284                 0.6437                 1.9245
 IR Inten    --      0.0000                 0.0000                 9.1312

                     43                     44                     45
                      A                      A                      A
 Frequencies --    743.5703               755.9934               772.4554
 Red. masses --      6.1442                 3.9959                 1.4429
 Frc consts  --      2.0015                 1.3456                 0.5073
 IR Inten    --      0.0570                 0.0000               135.4372

                     46                     47                     48
                      A                      A                      A
 Frequencies --    776.4890               779.0941               781.7335
 Red. masses --      1.3388                 2.4606                 1.6151
 Frc consts  --      0.4756                 0.8800                 0.5815
 IR Inten    --      0.0000                 0.0000                 0.0000

                     49                     50                     51
                      A                      A                      A
 Frequencies --    799.2590               807.6892               817.1360
 Red. masses --      5.8045                 6.9731                 2.0655
 Frc consts  --      2.1847                 2.6802                 0.8126
 IR Inten    --     17.8068                 0.0000                 0.0000

                     52                     53                     54
                      A                      A                      A
 Frequencies --    842.5142               846.7181               854.1394
 Red. masses --      2.9399                 8.0884                 1.5837
 Frc consts  --      1.2295                 3.4166                 0.6807
 IR Inten    --     36.0040                 0.0476                 0.0000

                     55                     56                     57
                      A                      A                      A
 Frequencies --    861.5249               863.6894               871.3131
 Red. masses --      2.6417                 2.6905                 1.4519
 Frc consts  --      1.1552                 1.1825                 0.6494
 IR Inten    --      0.0000                55.6991                 0.0000

                     58                     59                     60
                      A                      A                      A
 Frequencies --    887.3495               919.8669               920.6248
 Red. masses --      4.2736                10.0821                 6.3117
 Frc consts  --      1.9826                 5.0263                 3.1518
 IR Inten    --      0.0000                 0.0000                 0.0000

                     61                     62                     63
                      A                      A                      A
 Frequencies --    949.9680               956.6225               964.2972
 Red. masses --      1.3427                 1.3766                 1.2950
 Frc consts  --      0.7139                 0.7422                 0.7095
 IR Inten    --      0.0000                 2.5240                 0.0000

                     64                     65                     66
                      A                      A                      A
 Frequencies --    964.5783               975.3140               976.2877
 Red. masses --      7.3705                 1.3371                 5.4171
 Frc consts  --      4.0404                 0.7494                 3.0421
 IR Inten    --      3.9283                 0.0000                 0.0000

                     67                     68                     69
                      A                      A                      A
 Frequencies --    978.5951               985.5190               992.9703
 Red. masses --      1.3043                 1.3249                 1.2746
 Frc consts  --      0.7359                 0.7582                 0.7404
 IR Inten    --      0.0000                 0.7570                 0.0000

                     70                     71                     72
                      A                      A                      A
 Frequencies --    994.4069              1037.9288              1056.1113
 Red. masses --      1.2801                 3.8093                 7.2200
 Frc consts  --      0.7458                 2.4178                 4.7447
 IR Inten    --      0.0000                 0.0000                 8.4358

                     73                     74                     75
                      A                      A                      A
 Frequencies --   1066.1295              1088.2198              1093.7186
 Red. masses --      5.6971                 2.3723                 2.0207
 Frc consts  --      3.8152                 1.6552                 1.4242
 IR Inten    --      0.0000                 0.0000                 7.5653

                     76                     77                     78
                      A                      A                      A
 Frequencies --   1121.8497              1142.5768              1180.1673
 Red. masses --      3.2672                 2.9073                 3.1099
 Frc consts  --      2.4227                 2.2362                 2.5520
 IR Inten    --      0.0027                 0.0000                 2.3374

                     79                     80                     81
                      A                      A                      A
 Frequencies --   1184.1210              1189.3526              1193.5362
 Red. masses --      1.5217                 1.3385                 1.2609
 Frc consts  --      1.2571                 1.1156                 1.0583
 IR Inten    --      0.0000                 1.8836                 0.2178

                     82                     83                     84
                      A                      A                      A
 Frequencies --   1210.8248              1214.8822              1221.6423
 Red. masses --      1.1665                 1.3460                 1.5067
 Frc consts  --      1.0076                 1.1705                 1.3248
 IR Inten    --      0.0000                 0.0000                 1.1855

                     85                     86                     87
                      A                      A                      A
 Frequencies --   1222.5533              1265.2884              1267.2097
 Red. masses --      2.2960                 2.1414                 1.6905
 Frc consts  --      2.0219                 2.0199                 1.5994
 IR Inten    --      1.0679                 0.0000                 0.0000

                     88                     89                     90
                      A                      A                      A
 Frequencies --   1274.8198              1280.8415              1294.0098
 Red. masses --      2.5991                 1.7949                 1.6333
 Frc consts  --      2.4887                 1.7350                 1.6114
 IR Inten    --      0.0000                 0.5128                32.5148

                     91                     92                     93
                      A                      A                      A
 Frequencies --   1319.5048              1339.0189              1346.3532
 Red. masses --      2.0994                 5.1536                 2.0012
 Frc consts  --      2.1537                 5.4442                 2.1372
 IR Inten    --      0.0000                 2.4736                 2.1513

                     94                     95                     96
                      A                      A                      A
 Frequencies --   1356.9897              1369.1876              1387.5457
 Red. masses --      2.3512                 5.1247                 5.0372
 Frc consts  --      2.5508                 5.6603                 5.7140
 IR Inten    --      0.0000                 6.3907                 0.0000

                     97                     98                     99
                      A                      A                      A
 Frequencies --   1390.5965              1409.6851              1422.4525
 Red. masses --      3.4622                 8.3093                 5.8222
 Frc consts  --      3.9447                 9.7288                 6.9408
 IR Inten    --     12.9984                 0.0000                 3.1398

                    100                    101                    102
                      A                      A                      A
 Frequencies --   1432.7773              1448.4618              1459.4289
 Red. masses --      2.3383                 3.9275                 3.3423
 Frc consts  --      2.8282                 4.8549                 4.1943
 IR Inten    --      0.0000                 0.0799                 0.0000

                    103                    104                    105
                      A                      A                      A
 Frequencies --   1462.1006              1466.5198              1491.0396
 Red. masses --      5.8348                 4.6995                 2.3878
 Frc consts  --      7.3490                 5.9550                 3.1277
 IR Inten    --      0.0000                 1.2273                 4.2684

                    106                    107                    108
                      A                      A                      A
 Frequencies --   1497.5286              1510.1748              1531.5308
 Red. masses --      2.9202                 3.1919                 2.5861
 Frc consts  --      3.8585                 4.2890                 3.5739
 IR Inten    --      0.0000                 0.0000                47.8055

                    109                    110                    111
                      A                      A                      A
 Frequencies --   1532.7869              1538.7406              1575.5094
 Red. masses --      4.0511                 2.9342                 3.9523
 Frc consts  --      5.6077                 4.0933                 5.7802
 IR Inten    --      0.0000                 1.1667                 3.5717

                    112                    113                    114
                      A                      A                      A
 Frequencies --   1588.3981              1593.5013              1618.5759
 Red. masses --      3.5963                 3.5681                 4.6904
 Frc consts  --      5.3460                 5.3381                 7.2398
 IR Inten    --      0.0000                 0.0000                 1.9584

                    115                    116                    117
                      A                      A                      A
 Frequencies --   1640.0637              1660.6772              1679.1499
 Red. masses --     10.1919                 8.2817                 7.4573
 Frc consts  --     16.1520                13.4568                12.3882
 IR Inten    --      0.2906                 0.0000                 0.3153

                    118                    119                    120
                      A                      A                      A
 Frequencies --   1689.0202              1691.6237              1692.3875
 Red. masses --      6.2321                 5.5491                 6.6780
 Frc consts  --     10.4750                 9.3558                11.2692
 IR Inten    --      0.2347                 0.0000                 0.0000

                    121                    122                    123
                      A                      A                      A
 Frequencies --   1697.1490              1705.4336              3194.5169
 Red. masses --      5.8748                 8.0681                 1.0898
 Frc consts  --      9.9697                13.8258                 6.5525
 IR Inten    --      7.5035                 0.0000                 0.0000

                    124                    125                    126
                      A                      A                      A
 Frequencies --   3194.6570              3196.4975              3196.8337
 Red. masses --      1.0900                 1.0892                 1.0897
 Frc consts  --      6.5543                 6.5571                 6.5611
 IR Inten    --      0.1439                26.7107                 0.0000

                    127                    128                    129
                      A                      A                      A
 Frequencies --   3199.7758              3199.9010              3214.6217
 Red. masses --      1.0870                 1.0873                 1.0924
 Frc consts  --      6.5573                 6.5594                 6.6510
 IR Inten    --      0.0000                13.5235                40.8099

                    130                    131                    132
                      A                      A                      A
 Frequencies --   3214.6961              3231.6273              3231.6828
 Red. masses --      1.0924                 1.0941                 1.0940
 Frc consts  --      6.6512                 6.7319                 6.7314
 IR Inten    --      0.0000                 0.0000                 0.0293

                    133                    134                    135
                      A                      A                      A
 Frequencies --   3233.7883              3233.8679              3255.1915
 Red. masses --      1.0957                 1.0956                 1.0884
 Frc consts  --      6.7510                 6.7506                 6.7953
 IR Inten    --      1.4360                 0.0000                51.9072

                    136                    137                    138
                      A                      A                      A
 Frequencies --   3255.2506              3256.5624              3256.6129
 Red. masses --      1.0886                 1.0892                 1.0891
 Frc consts  --      6.7964                 6.8060                 6.8054
 IR Inten    --      0.0000                27.2915                 0.0000

 - Thermochemistry -
 -------------------
 Temperature   298.150 Kelvin.  Pressure   1.00000 Atm.
 Atom     1 has atomic number  6 and mass  12.00000

 Molecular mass:   400.12520 amu.
 Principal axes and moments of inertia in atomic units:
                           1         2         3
     Eigenvalues --  5871.55508********************
           X            1.00000   0.00000   0.00000
           Y            0.00000   1.00000   0.00000
           Z            0.00000   0.00000   1.00000
 This molecule is an asymmetric top.
 Rotational symmetry number  1.
 Warning -- assumption of classical behavior for rotation
           may cause significant error
 Rotational temperatures (Kelvin)      0.01475     0.00515     0.00382
 Rotational constants (GHZ):           0.30737     0.10739     0.07958
 Zero-point vibrational energy     992197.0 (Joules/Mol)
                                  237.14078 (Kcal/Mol)
 Warning -- explicit consideration of  34 degrees of freedom as
           vibrations may cause significant error
 Vibrational temperatures:     35.40    81.18    91.35   118.75   157.87
          (Kelvin)            163.24   262.01   273.87   278.87   372.10
                              393.96   398.81   427.04   438.62   491.88
                              508.18   521.11   542.34   611.97   613.83
                              619.81   622.94   662.49   724.60   727.02
                              734.94   766.02   767.24   812.56   818.34
                              826.59   871.37   882.57   885.11   903.57
                              914.59   919.17   964.95   981.54   983.53
                             1003.99  1041.93  1069.83  1087.70  1111.39
                             1117.19  1120.94  1124.74  1149.95  1162.08
                             1175.68  1212.19  1218.24  1228.91  1239.54
                             1242.65  1253.62  1276.70  1323.48  1324.57
                             1366.79  1376.36  1387.41  1387.81  1403.26
                             1404.66  1407.98  1417.94  1428.66  1430.73
                             1493.35  1519.51  1533.92  1565.70  1573.62
                             1614.09  1643.91  1698.00  1703.68  1711.21
                             1717.23  1742.10  1747.94  1757.67  1758.98
                             1820.47  1823.23  1834.18  1842.84  1861.79
                             1898.47  1926.55  1937.10  1952.40  1969.95
                             1996.37  2000.76  2028.22  2046.59  2061.44
                             2084.01  2099.79  2103.63  2109.99  2145.27
                             2154.61  2172.80  2203.53  2205.34  2213.90
                             2266.80  2285.35  2292.69  2328.77  2359.68
                             2389.34  2415.92  2430.12  2433.87  2434.97
                             2441.82  2453.74  4596.19  4596.39  4599.04
                             4599.52  4603.76  4603.94  4625.12  4625.22
                             4649.59  4649.66  4652.69  4652.81  4683.49
                             4683.57  4685.46  4685.53

 Zero-point correction=                           0.377908 (Hartree/Particle)
 Thermal correction to Energy=                    0.397508
 Thermal correction to Enthalpy=                  0.398452
 Thermal correction to Gibbs Free Energy=         0.330555
 Sum of electronic and zero-point Energies=          -1228.776807
 Sum of electronic and thermal Energies=             -1228.757208
 Sum of electronic and thermal Enthalpies=           -1228.756263
 Sum of electronic and thermal Free Energies=        -1228.824160

                     E (Thermal)             CV                S
                      KCal/Mol        Cal/Mol-Kelvin    Cal/Mol-Kelvin
 Total                  249.440             86.490            142.902
 Electronic               0.000              0.000              0.000
 Translational            0.889              2.981             43.851
 Rotational               0.889              2.981             36.058
 Vibrational            247.662             80.529             62.993
 Vibration     1          0.593              1.985              6.223
 Vibration     2          0.596              1.975              4.578
 Vibration     3          0.597              1.972              4.346
 Vibration     4          0.600              1.961              3.830
 Vibration     5          0.606              1.941              3.274
 Vibration     6          0.607              1.938              3.209
 Vibration     7          0.630              1.864              2.307
 Vibration     8          0.634              1.853              2.224
 Vibration     9          0.635              1.848              2.191
 Vibration    10          0.667              1.748              1.671
 Vibration    11          0.676              1.722              1.572
 Vibration    12          0.678              1.716              1.551
 Vibration    13          0.690              1.680              1.435
 Vibration    14          0.696              1.665              1.390
 Vibration    15          0.721              1.592              1.203
 Vibration    16          0.729              1.569              1.152
 Vibration    17          0.736              1.550              1.113
 Vibration    18          0.748              1.519              1.051
 Vibration    19          0.787              1.415              0.874
 Vibration    20          0.788              1.412              0.870
 Vibration    21          0.792              1.403              0.856
 Vibration    22          0.794              1.398              0.849
 Vibration    23          0.818              1.338              0.765
 Vibration    24          0.859              1.242              0.649
 Vibration    25          0.861              1.238              0.645
 Vibration    26          0.866              1.226              0.632
 Vibration    27          0.887              1.178              0.582
 Vibration    28          0.888              1.176              0.580
 Vibration    29          0.921              1.108              0.514
 Vibration    30          0.925              1.099              0.507
 Vibration    31          0.931              1.086              0.496
 Vibration    32          0.964              1.020              0.440
 Vibration    33          0.973              1.003              0.427
 Vibration    34          0.975              1.000              0.424

 Normal termination of Gaussian 09 at Sun Jul 28 08:40:00 2019.
