 Gaussian 09, Revision D.01,
 Gaussian 09:  AM64L-G09RevD.01 24-Apr-2013

 ----------------------------------------------------------------------
 #P wB97XD/def2tzvp opt=(tight) freq integral(Grid=ultrafine) # SCF(Max
 Cycle=380) 5d 7f GFPrint
 ----------------------------------------------------------------------

 ---------------------------------------
 The PBEPBE optimization and frequencies
 ---------------------------------------
 Symbolic Z-matrix:
 Charge =  0 Multiplicity = 1

 SCF Done:  E(RwB97XD) =  -153.475282319     A.U. after   13 cycles
 SCF Done:  E(RwB97XD) =  -153.475436411     A.U. after    9 cycles
 SCF Done:  E(RwB97XD) =  -153.475437826     A.U. after    8 cycles
 SCF Done:  E(RwB97XD) =  -153.475437826     A.U. after    5 cycles
 Optimization completed.
    -- Stationary point found.

 1\1\GINC-CN513-10-R\FOpt\RwB97XD\def2TZVP\C4H2\MINENKY\09-Jul-2021\0\\
 #P wB97XD/def2tzvp opt=(tight) freq integral(Grid=ultrafine) # SCF(Max
 Cycle=380) 5d 7f GFPrint\\The PBEPBE optimization and frequencies\\0,1
 \C,0.,0.,0.6862737767\C,0.,0.,-0.6862737767\C,0.,0.,1.8861722277\C,0.,
 0.,-1.8861722277\H,0.,0.,2.9498772321\H,0.,0.,-2.9498772321\\Version=A
 M64L-G09RevD.01\State=1-SGG\HF=-153.4754378\RMSD=5.088e-09\RMSF=5.133e
 -07\Dipole=0.,0.,0.\Quadrupole=-3.2467423,-3.2467423,6.4934847,0.,0.,0
 .\PG=D*H [C*(H1C1C1.C1C1H1)]\\@

 Normal termination of Gaussian 09 at Fri Jul  9 19:26:26 2021.

 ---------------------------------------------------------------------
 #P Geom=AllCheck Guess=TCheck SCRF=Check GenChk RwB97XD/def2TZVP Freq
 ---------------------------------------------------------------------

 Structure from the checkpoint file:  "m1_00_460-12-80_C4H2_wB97XD.chk"
 ---------------------------------------
 The PBEPBE optimization and frequencies
 ---------------------------------------
 Charge =  0 Multiplicity = 1

                         Standard orientation:
 ---------------------------------------------------------------------
 Center     Atomic      Atomic             Coordinates (Angstroms)
 Number     Number       Type             X           Y           Z
 ---------------------------------------------------------------------
      1          6           0        0.000000    0.000000    0.686274
      2          6           0        0.000000    0.000000   -0.686274
      3          6           0        0.000000    0.000000    1.886172
      4          6           0        0.000000    0.000000   -1.886172
      5          1           0        0.000000    0.000000    2.949877
      6          1           0        0.000000    0.000000   -2.949877
 ---------------------------------------------------------------------

 SCF Done:  E(RwB97XD) =  -153.475437826     A.U. after    1 cycles

 The electronic state is 1-SGG.
 Alpha  occ. eigenvalues --  -10.31917 -10.31852 -10.30788 -10.30786  -0.90960
 Alpha  occ. eigenvalues --   -0.85129  -0.72792  -0.63232  -0.60816  -0.45139
 Alpha  occ. eigenvalues --   -0.45139  -0.34931  -0.34931
 Alpha virt. eigenvalues --    0.03583   0.03583   0.13205   0.14583   0.17858
 Alpha virt. eigenvalues --    0.18360   0.20043   0.20043   0.27841   0.27841
 Alpha virt. eigenvalues --    0.29336   0.30814   0.35260   0.35260   0.41546

 Mulliken charges:
               1
     1  C   -0.045043
     2  C   -0.045043
     3  C   -0.159726
     4  C   -0.159726
     5  H    0.204769
     6  H    0.204769
 Sum of Mulliken charges =   0.00000

 Dipole moment (field-independent basis, Debye):
    X=              0.0000    Y=              0.0000    Z=              0.0000  Tot=              0.0000
 Quadrupole moment (field-independent basis, Debye-Ang):
   XX=            -24.5897   YY=            -24.5897   ZZ=            -11.4887
   XY=              0.0000   XZ=              0.0000   YZ=              0.0000

  Exact polarizability:  24.303   0.000  24.303   0.000   0.000  84.032
 Approx polarizability:  26.007   0.000  26.007   0.000   0.000 104.566

                      1                      2                      3
                     PIU                    PIU                    PIG
 Frequencies --    237.3959               237.3959               536.1043
 Red. masses --      3.7148                 3.7148                 6.6167
 Frc consts  --      0.1233                 0.1233                 1.1205
 IR Inten    --      9.5392                 9.5392                 0.0000

                      4                      5                      6
                     PIG                    PIG                    PIG
 Frequencies --    536.1043               696.6239               696.6239
 Red. masses --      6.6167                 1.2741                 1.2741
 Frc consts  --      1.1205                 0.3643                 0.3643
 IR Inten    --      0.0000                 0.0000                 0.0000

                      7                      8                      9
                     PIU                    PIU                    SGG
 Frequencies --    701.7205               701.7205               910.6581
 Red. masses --      1.2991                 1.2991                 7.0369
 Frc consts  --      0.3769                 0.3769                 3.4383
 IR Inten    --     91.4714                91.4714                 0.0000

                     10                     11                     12
                     SGU                    SGG                    SGG
 Frequencies --   2147.4409              2332.7741              3478.4204
 Red. masses --      5.6077                 6.4019                 1.1620
 Frc consts  --     15.2363                20.5261                 8.2836
 IR Inten    --      2.8818                 0.0000                 0.0000

                     13
                     SGU
 Frequencies --   3478.9489
 Red. masses --      1.1620
 Frc consts  --      8.2859
 IR Inten    --    184.2163

 - Thermochemistry -
 -------------------
 Temperature   298.150 Kelvin.  Pressure   1.00000 Atm.
 Atom     1 has atomic number  6 and mass  12.00000

 Molecular mass:    50.01565 amu.
 Principal axes and moments of inertia in atomic units:
                           1         2         3
     Eigenvalues --     0.00000 407.91042 407.91042
           X            0.00000   0.70711   0.70711
           Y            0.00000   0.70711  -0.70711
           Z            1.00000   0.00000   0.00000
 This molecule is a prolate symmetric top.
 Rotational symmetry number  2.
 Rotational temperature (Kelvin)      0.21234
 Rotational constant (GHZ):           4.424357
 Zero-point vibrational energy      99839.9 (Joules/Mol)
                                   23.86231 (Kcal/Mol)
 Warning -- explicit consideration of   4 degrees of freedom as
           vibrations may cause significant error
 Vibrational temperatures:    341.56   341.56   771.33   771.33  1002.29
          (Kelvin)           1002.29  1009.62  1009.62  1310.23  3089.68
                             3356.34  5004.66  5005.43

 Zero-point correction=                           0.038027 (Hartree/Particle)
 Thermal correction to Energy=                    0.042298
 Thermal correction to Enthalpy=                  0.043242
 Thermal correction to Gibbs Free Energy=         0.015295
 Sum of electronic and zero-point Energies=           -153.437411
 Sum of electronic and thermal Energies=              -153.433140
 Sum of electronic and thermal Enthalpies=            -153.432196
 Sum of electronic and thermal Free Energies=         -153.460143

                     E (Thermal)             CV                S
                      KCal/Mol        Cal/Mol-Kelvin    Cal/Mol-Kelvin
 Total                   26.542             14.694             58.820
 Electronic               0.000              0.000              0.000
 Translational            0.889              2.981             37.653
 Rotational               0.592              1.987             15.011
 Vibrational             25.061              9.726              6.155
 Vibration     1          0.656              1.783              1.822
 Vibration     2          0.656              1.783              1.822
 Vibration     3          0.891              1.170              0.574
 Vibration     4          0.891              1.170              0.574

 Optimization completed.
    -- Stationary point found.

 1\1\GINC-CN513-10-R\Freq\RwB97XD\def2TZVP\C4H2\MINENKY\09-Jul-2021\0\\
 #P Geom=AllCheck Guess=TCheck SCRF=Check GenChk RwB97XD/def2TZVP Freq\
 \The PBEPBE optimization and frequencies\\0,1\C,0.,0.,0.6862737767\C,0
 .,0.,-0.6862737767\C,0.,0.,1.8861722277\C,0.,0.,-1.8861722277\H,0.,0.,
 2.9498772321\H,0.,0.,-2.9498772321\\Version=AM64L-G09RevD.01\State=1-S
 GG\HF=-153.4754378\RMSD=1.636e-09\RMSF=5.114e-07\ZeroPoint=0.038027\Th
 ermal=0.0422981\Dipole=0.,0.,0.\DipoleDeriv=-0.0174421,0.,0.,0.,-0.017
 4421,0.,0.,0.,0.2009188,-0.0174421,0.,0.,0.,-0.0174421,0.,0.,0.,0.2009

 Normal termination of Gaussian 09 at Fri Jul  9 19:29:21 2021.
