 Gaussian 09, Revision D.01,
 Gaussian 09:  AM64L-G09RevD.01 24-Apr-2013

 ----------------------------------------------------------------------
 #P wB97XD/def2tzvp opt=(tight) freq integral(Grid=ultrafine) # SCF(Max
 Cycle=380) 5d 7f GFPrint
 ----------------------------------------------------------------------

 ---------------------------------------
 The PBEPBE optimization and frequencies
 ---------------------------------------
 Symbolic Z-matrix:
 Charge =  0 Multiplicity = 1

 SCF Done:  E(RwB97XD) =  -541.934616099     A.U. after   18 cycles
 SCF Done:  E(RwB97XD) =  -541.934664699     A.U. after   14 cycles
 SCF Done:  E(RwB97XD) =  -541.934668665     A.U. after   13 cycles
 SCF Done:  E(RwB97XD) =  -541.934669181     A.U. after    7 cycles
 SCF Done:  E(RwB97XD) =  -541.934669211     A.U. after    6 cycles
 SCF Done:  E(RwB97XD) =  -541.934669217     A.U. after    6 cycles
 SCF Done:  E(RwB97XD) =  -541.934669216     A.U. after    5 cycles
 SCF Done:  E(RwB97XD) =  -541.934669217     A.U. after    4 cycles
 SCF Done:  E(RwB97XD) =  -541.934669217     A.U. after    3 cycles
 SCF Done:  E(RwB97XD) =  -541.934669217     A.U. after    3 cycles
 SCF Done:  E(RwB97XD) =  -541.934669217     A.U. after    3 cycles
 Optimization completed.
    -- Stationary point found.
 Normal termination of Gaussian 09 at Thu Sep 28 13:58:20 2023.

 ---------------------------------------------------------------------
 #P Geom=AllCheck Guess=TCheck SCRF=Check GenChk RwB97XD/def2TZVP Freq
 ---------------------------------------------------------------------

 Structure from the checkpoint file:  "m1_00_103-29-70_C14H14_wB97XD.chk"
 ---------------------------------------
 The PBEPBE optimization and frequencies
 ---------------------------------------
 Charge =  0 Multiplicity = 1

                         Standard orientation:
 ---------------------------------------------------------------------
 Center     Atomic      Atomic             Coordinates (Angstroms)
 Number     Number       Type             X           Y           Z
 ---------------------------------------------------------------------
      1          6           0       -0.563093    1.949162   -0.526377
      2          6           0        0.563063    1.949170    0.526400
      3          6           0       -1.483348    0.766253   -0.392292
      4          6           0        1.483341    0.766281    0.392304
      5          6           0       -1.272107   -0.394207   -1.128967
      6          6           0       -2.532801    0.788670    0.521278
      7          6           0       -2.085987   -1.503343   -0.958136
      8          6           0       -3.349777   -0.317107    0.696342
      9          6           0       -3.127552   -1.468855   -0.043953
     10          6           0        2.532694    0.788668   -0.521381
     11          6           0        1.272214   -0.394135    1.129079
     12          6           0        3.349681   -0.317097   -0.696463
     13          6           0        2.086109   -1.503259    0.958233
     14          6           0        3.127570   -1.468803    0.043933
     15          1           0       -0.114964    1.958224   -1.522711
     16          1           0       -1.135151    2.874245   -0.423104
     17          1           0        0.114934    1.958215    1.522735
     18          1           0        1.135101    2.874266    0.423133
     19          1           0       -0.450058   -0.432568   -1.834261
     20          1           0       -2.712610    1.686640    1.102728
     21          1           0        2.712412    1.686603   -1.102912
     22          1           0        0.450242   -0.432474    1.834464
     23          1           0       -1.903499   -2.398418   -1.539621
     24          1           0       -4.163867   -0.278657    1.409534
     25          1           0        4.163690   -0.278673   -1.409749
     26          1           0        1.903709   -2.398301    1.539798
     27          1           0       -3.764922   -2.333780    0.089616
     28          1           0        3.764949   -2.333720   -0.089651
 ---------------------------------------------------------------------

 SCF Done:  E(RwB97XD) =  -541.934669217     A.U. after    1 cycles

 The electronic state is 1-A.
 Alpha  occ. eigenvalues --  -10.29052 -10.29052 -10.28746 -10.28726 -10.28411
 Alpha  occ. eigenvalues --  -10.28411 -10.28283 -10.28282 -10.28214 -10.28214
 Alpha  occ. eigenvalues --  -10.28181 -10.28181 -10.27997 -10.27996  -0.96666
 Alpha  occ. eigenvalues --   -0.95738  -0.90075  -0.85587  -0.84394  -0.84329
 Alpha  occ. eigenvalues --   -0.80885  -0.73810  -0.69994  -0.69864  -0.68151
 Alpha  occ. eigenvalues --   -0.66248  -0.60644  -0.59806  -0.56097  -0.55393
 Alpha  occ. eigenvalues --   -0.53917  -0.53488  -0.51820  -0.50631  -0.50255
 Alpha  occ. eigenvalues --   -0.49777  -0.49377  -0.46445  -0.45334  -0.45141
 Alpha  occ. eigenvalues --   -0.43827  -0.42137  -0.41920  -0.41068  -0.40695
 Alpha  occ. eigenvalues --   -0.33375  -0.32846  -0.31963  -0.31656
 Alpha virt. eigenvalues --    0.05552   0.05833   0.06357   0.06389   0.11568
 Alpha virt. eigenvalues --    0.13025   0.13795   0.13890   0.15671   0.16048
 Alpha virt. eigenvalues --    0.16679   0.17393   0.18033   0.18755   0.18955

 Mulliken charges:
               1
     1  C   -0.219913
     2  C   -0.219902
     3  C    0.190032
     4  C    0.190011
     5  C   -0.215754
     6  C   -0.242879
     7  C   -0.101623
     8  C   -0.104300
     9  C   -0.131094
    10  C   -0.242876
    11  C   -0.215738
    12  C   -0.104306
    13  C   -0.101625
    14  C   -0.131087
    15  H    0.122396
    16  H    0.115682
    17  H    0.122392
    18  H    0.115684
    19  H    0.127340
    20  H    0.112657
    21  H    0.112659
    22  H    0.127329
    23  H    0.115642
    24  H    0.115400
    25  H    0.115400
    26  H    0.115643
    27  H    0.116414
    28  H    0.116414
 Sum of Mulliken charges =   0.00000

 Dipole moment (field-independent basis, Debye):
    X=              0.0000    Y=              0.2883    Z=              0.0000  Tot=              0.2883
 Quadrupole moment (field-independent basis, Debye-Ang):
   XX=            -82.8783   YY=            -76.3616   ZZ=            -82.7938
   XY=             -0.0005   XZ=             -6.5315   YZ=             -0.0001

  Exact polarizability: 167.576  -0.002 161.346 -25.937   0.000 122.218
 Approx polarizability: 173.623  -0.003 194.663 -35.783  -0.001 157.597

                      1                      2                      3
                      A                      A                      A
 Frequencies --     29.4464                29.8187                52.2956
 Red. masses --      4.4904                 3.6892                 4.1386
 Frc consts  --      0.0023                 0.0019                 0.0067
 IR Inten    --      0.0017                 0.0854                 0.0019

                      4                      5                      6
                      A                      A                      A
 Frequencies --    120.7750               124.2735               237.8939
 Red. masses --      3.4161                 4.3644                 4.3645
 Frc consts  --      0.0294                 0.0397                 0.1455
 IR Inten    --      0.0243                 1.1346                 0.3238

                      7                      8                      9
                      A                      A                      A
 Frequencies --    334.5746               370.8200               382.6364
 Red. masses --      3.0354                 2.5896                 1.9652
 Frc consts  --      0.2002                 0.2098                 0.1695
 IR Inten    --      0.4115                 0.0968                 0.1377

                     10                     11                     12
                      A                      A                      A
 Frequencies --    419.5633               420.6843               498.2305
 Red. masses --      2.8818                 2.8782                 4.0075
 Frc consts  --      0.2989                 0.3001                 0.5861
 IR Inten    --      0.0412                 0.0057                 0.4644

                     13                     14                     15
                      A                      A                      A
 Frequencies --    520.9379               551.4018               601.0971
 Red. masses --      3.8185                 3.7405                 2.6296
 Frc consts  --      0.6105                 0.6701                 0.5598
 IR Inten    --     12.3710                 2.6050                17.8980

                     16                     17                     18
                      A                      A                      A
 Frequencies --    640.6642               641.1619               724.1879
 Red. masses --      6.2823                 6.2166                 1.6632
 Frc consts  --      1.5193                 1.5057                 0.5139
 IR Inten    --      0.0228                 0.2475                85.1381

                     19                     20                     21
                      A                      A                      A
 Frequencies --    724.9325               770.3388               781.2963
 Red. masses --      1.6472                 2.9077                 1.7135
 Frc consts  --      0.5100                 1.0166                 0.6162
 IR Inten    --      8.4103                 1.4767                40.1798

                     22                     23                     24
                      A                      A                      A
 Frequencies --    791.8762               793.5614               872.9854
 Red. masses --      2.5632                 3.3673                 1.2527
 Frc consts  --      0.9470                 1.2494                 0.5625
 IR Inten    --      3.2103                 8.1855                 0.0821

                     25                     26                     27
                      A                      A                      A
 Frequencies --    874.0444               918.0893               939.6139
 Red. masses --      1.2510                 1.5290                 1.4445
 Frc consts  --      0.5631                 0.7593                 0.7514
 IR Inten    --      0.1265                 0.3517                 0.1997

                     28                     29                     30
                      A                      A                      A
 Frequencies --    967.8009               972.4600               996.1175
 Red. masses --      2.1177                 2.0256                 1.3666
 Frc consts  --      1.1687                 1.1286                 0.7989
 IR Inten    --      0.4230                 7.3785                 0.3320

                     31                     32                     33
                      A                      A                      A
 Frequencies --    996.1937              1008.2266              1008.8997
 Red. masses --      1.3663                 1.2934                 1.2943
 Frc consts  --      0.7989                 0.7747                 0.7762
 IR Inten    --      0.0032                 0.1135                 0.5929

                     34                     35                     36
                      A                      A                      A
 Frequencies --   1027.3977              1029.3269              1029.7205
 Red. masses --      2.4125                 6.1860                 5.0082
 Frc consts  --      1.5004                 3.8616                 3.1287
 IR Inten    --      0.0355                 0.2240                 0.0651

                     37                     38                     39
                      A                      A                      A
 Frequencies --   1064.8401              1066.0169              1108.1225
 Red. masses --      2.1641                 2.1014                 1.5464
 Frc consts  --      1.4457                 1.4070                 1.1188
 IR Inten    --      4.1255                 2.8641                 9.7601

                     40                     41                     42
                      A                      A                      A
 Frequencies --   1122.7667              1172.1404              1188.2014
 Red. masses --      1.5219                 1.2267                 1.1436
 Frc consts  --      1.1303                 0.9930                 0.9513
 IR Inten    --      3.9133                 1.1722                 0.0165

                     43                     44                     45
                      A                      A                      A
 Frequencies --   1190.6081              1215.3023              1215.4906
 Red. masses --      1.1062                 1.1326                 1.1267
 Frc consts  --      0.9239                 0.9856                 0.9807
 IR Inten    --      0.1821                 0.1278                 1.3192

                     46                     47                     48
                      A                      A                      A
 Frequencies --   1230.0749              1235.4162              1252.3012
 Red. masses --      1.5640                 2.1947                 1.9015
 Frc consts  --      1.3943                 1.9735                 1.7569
 IR Inten    --      1.9669                 0.8696                 2.1239

                     49                     50                     51
                      A                      A                      A
 Frequencies --   1334.2876              1344.2099              1357.4825
 Red. masses --      2.9154                 4.3167                 1.7466
 Frc consts  --      3.0580                 4.5955                 1.8963
 IR Inten    --      0.0002                 0.2424                 0.3246

                     52                     53                     54
                      A                      A                      A
 Frequencies --   1369.8395              1377.5205              1383.7167
 Red. masses --      1.3047                 1.2576                 1.5141
 Frc consts  --      1.4425                 1.4060                 1.7080
 IR Inten    --      0.2022                 0.9172                 5.0628

                     55                     56                     57
                      A                      A                      A
 Frequencies --   1495.3406              1499.4832              1503.1273
 Red. masses --      1.1046                 1.2795                 2.2574
 Frc consts  --      1.4553                 1.6950                 3.0051
 IR Inten    --      9.6464                 5.7305                 9.3055

                     58                     59                     60
                      A                      A                      A
 Frequencies --   1504.4153              1547.4596              1548.8362
 Red. masses --      1.7771                 2.3597                 2.3480
 Frc consts  --      2.3697                 3.3292                 3.3186
 IR Inten    --      0.5051                11.0111                11.2454

                     61                     62                     63
                      A                      A                      A
 Frequencies --   1659.5862              1659.9274              1682.4792
 Red. masses --      5.8051                 5.7852                 5.9043
 Frc consts  --      9.4201                 9.3917                 9.8473
 IR Inten    --      0.3366                 1.2148                 7.2689

                     64                     65                     66
                      A                      A                      A
 Frequencies --   1683.4504              3055.5272              3059.8808
 Red. masses --      5.8743                 1.0602                 1.0610
 Frc consts  --      9.8085                 5.8319                 5.8531
 IR Inten    --      2.7939                15.7279                36.9370

                     67                     68                     69
                      A                      A                      A
 Frequencies --   3099.3203              3110.0704              3178.2369
 Red. masses --      1.1034                 1.1045                 1.0877
 Frc consts  --      6.2446                 6.2946                 6.4733
 IR Inten    --     19.6847                26.1518                12.3571

                     70                     71                     72
                      A                      A                      A
 Frequencies --   3178.2417              3187.6325              3187.7522
 Red. masses --      1.0877                 1.0870                 1.0870
 Frc consts  --      6.4736                 6.5077                 6.5082
 IR Inten    --      2.2735                 0.2062                 5.7614

                     73                     74                     75
                      A                      A                      A
 Frequencies --   3197.5956              3197.7977              3207.1614
 Red. masses --      1.0903                 1.0904                 1.0945
 Frc consts  --      6.5683                 6.5698                 6.6328
 IR Inten    --      9.5034                 1.8613                43.3287

                     76                     77                     78
                      A                      A                      A
 Frequencies --   3207.1778              3219.3756              3219.5023
 Red. masses --      1.0944                 1.0986                 1.0986
 Frc consts  --      6.6324                 6.7087                 6.7090
 IR Inten    --      6.2301                10.3776                13.8973

 - Thermochemistry -
 -------------------
 Temperature   298.150 Kelvin.  Pressure   1.00000 Atm.
 Atom     1 has atomic number  6 and mass  12.00000

 Molecular mass:   182.10955 amu.
 Principal axes and moments of inertia in atomic units:
                           1         2         3
     Eigenvalues --  1391.638833766.186444414.03321
           X            0.99994   0.00000  -0.01122
           Y            0.00000   1.00000   0.00000
           Z            0.01122   0.00000   0.99994
 This molecule is an asymmetric top.
 Rotational symmetry number  1.
 Warning -- assumption of classical behavior for rotation
           may cause significant error
 Rotational temperatures (Kelvin)      0.06224     0.02300     0.01962
 Rotational constants (GHZ):           1.29685     0.47920     0.40886
 Zero-point vibrational energy     631156.1 (Joules/Mol)
                                  150.84993 (Kcal/Mol)
 Warning -- explicit consideration of  15 degrees of freedom as
           vibrations may cause significant error
 Vibrational temperatures:     42.37    42.90    75.24   173.77   178.80
          (Kelvin)            342.28   481.38   533.53   550.53   603.66
                              605.27   716.84   749.51   793.34   864.84
                              921.77   922.49  1041.94  1043.01  1108.34
                             1124.11  1139.33  1141.76  1256.03  1257.55
                             1320.92  1351.89  1392.45  1399.15  1433.19
                             1433.30  1450.61  1451.58  1478.19  1480.97
                             1481.54  1532.07  1533.76  1594.34  1615.41
                             1686.45  1709.55  1713.02  1748.55  1748.82
                             1769.80  1777.49  1801.78  1919.74  1934.02
                             1953.11  1970.89  1981.94  1990.86  2151.46
                             2157.42  2162.66  2164.52  2226.45  2228.43
                             2387.77  2388.26  2420.71  2422.11  4396.22
                             4402.48  4459.23  4474.69  4572.77  4572.78
                             4586.29  4586.46  4600.62  4600.91  4614.38
                             4614.41  4631.96  4632.14

 Zero-point correction=                           0.240395 (Hartree/Particle)
 Thermal correction to Energy=                    0.251792
 Thermal correction to Enthalpy=                  0.252736
 Thermal correction to Gibbs Free Energy=         0.200865
 Sum of electronic and zero-point Energies=           -541.694275
 Sum of electronic and thermal Energies=              -541.682877
 Sum of electronic and thermal Enthalpies=            -541.681933
 Sum of electronic and thermal Free Energies=         -541.733805

                     E (Thermal)             CV                S
                      KCal/Mol        Cal/Mol-Kelvin    Cal/Mol-Kelvin
 Total                  158.002             45.249            109.173
 Electronic               0.000              0.000              0.000
 Translational            0.889              2.981             41.505
 Rotational               0.889              2.981             31.515
 Vibrational            156.224             39.288             36.153
 Vibration     1          0.593              1.984              5.866
 Vibration     2          0.594              1.984              5.841
 Vibration     3          0.596              1.977              4.729
 Vibration     4          0.609              1.932              3.088
 Vibration     5          0.610              1.929              3.033
 Vibration     6          0.656              1.783              1.819
 Vibration     7          0.716              1.606              1.238
 Vibration     8          0.743              1.532              1.076
 Vibration     9          0.752              1.507              1.029
 Vibration    10          0.782              1.428              0.893
 Vibration    11          0.783              1.425              0.890
 Vibration    12          0.854              1.254              0.663
 Vibration    13          0.876              1.204              0.608
 Vibration    14          0.907              1.137              0.541
 Vibration    15          0.959              1.029              0.448

 Normal termination of Gaussian 09 at Thu Sep 28 14:47:44 2023.
