 Gaussian 09, Revision D.01,
 Gaussian 09:  AM64L-G09RevD.01 24-Apr-2013

 ----------------------------------------------------------------------
 #P wB97XD/def2tzvp opt=(tight) freq integral(Grid=ultrafine) # SCF(Max
 Cycle=380) 5d 7f GFPrint
 ----------------------------------------------------------------------

 ---------------------------------------
 The PBEPBE optimization and frequencies
 ---------------------------------------
 Symbolic Z-matrix:
 Charge =  0 Multiplicity = 1

 SCF Done:  E(RwB97XD) =  -1230.28498657     A.U. after   15 cycles
 SCF Done:  E(RwB97XD) =  -1230.28883972     A.U. after   12 cycles
 SCF Done:  E(RwB97XD) =  -1230.28896966     A.U. after   10 cycles
 SCF Done:  E(RwB97XD) =  -1230.28898608     A.U. after    9 cycles
 SCF Done:  E(RwB97XD) =  -1230.28898666     A.U. after    8 cycles
 SCF Done:  E(RwB97XD) =  -1230.28898672     A.U. after    5 cycles
 SCF Done:  E(RwB97XD) =  -1230.28898672     A.U. after    3 cycles
 Optimization completed.
    -- Stationary point found.
 Normal termination of Gaussian 09 at Sat Jul 27 20:20:28 2019.

 ---------------------------------------------------------------------
 #P Geom=AllCheck Guess=TCheck SCRF=Check GenChk RwB97XD/def2TZVP Freq
 ---------------------------------------------------------------------

 Structure from the checkpoint file:  "m1_00_196-46-3-C32H18_wB97XD.chk"
 ---------------------------------------
 The PBEPBE optimization and frequencies
 ---------------------------------------
 Charge =  0 Multiplicity = 1

                         Standard orientation:
 ---------------------------------------------------------------------
 Center     Atomic      Atomic             Coordinates (Angstroms)
 Number     Number       Type             X           Y           Z
 ---------------------------------------------------------------------
      1          6           0        6.190975    0.523322   -0.000001
      2          6           0        6.025698   -0.909653   -0.000016
      3          6           0        7.523138    1.055860   -0.000001
      4          6           0        5.079178    1.333329    0.000014
      5          6           0        7.201253   -1.731783   -0.000032
      6          6           0        4.758384   -1.444903   -0.000016
      7          6           0        8.435438   -1.182133   -0.000033
      8          6           0        8.599500    0.239353   -0.000017
      9          6           0        3.773285    0.801543    0.000013
     10          6           0        3.608450   -0.629640   -0.000002
     11          6           0        2.641190    1.614287    0.000025
     12          6           0        2.320763   -1.164089   -0.000002
     13          6           0        1.357054    1.077194    0.000023
     14          6           0        1.191773   -0.351293    0.000011
     15          6           0        0.199851    1.880191    0.000028
     16          6           0       -0.115012   -0.888299    0.000011
     17          6           0       -1.064955    1.337935    0.000024
     18          6           0       -1.237367   -0.096633    0.000021
     19          6           0       -2.219048    2.176981    0.000014
     20          6           0       -2.591373   -0.633769    0.000024
     21          6           0       -3.477852    1.670992   -0.000001
     22          6           0       -3.680132    0.236632    0.000005
     23          6           0       -4.639074    2.532867   -0.000022
     24          6           0       -5.010634   -0.272873   -0.000004
     25          6           0       -2.845166   -2.032173    0.000045
     26          6           0       -5.882634    2.036468   -0.000037
     27          6           0       -6.124037    0.610125   -0.000028
     28          6           0       -7.403045    0.089701   -0.000042
     29          6           0       -5.234024   -1.666581    0.000009
     30          6           0       -7.617493   -1.291483   -0.000030
     31          6           0       -6.553255   -2.156430   -0.000005
     32          6           0       -4.107330   -2.529033    0.000038
     33          1           0        7.646133    2.132480    0.000011
     34          1           0        5.203958    2.410673    0.000025
     35          1           0        7.075585   -2.808103   -0.000045
     36          1           0        4.634391   -2.522362   -0.000028
     37          1           0        9.313697   -1.815130   -0.000045
     38          1           0        9.598910    0.655549   -0.000017
     39          1           0        2.763958    2.691745    0.000035
     40          1           0        2.197417   -2.241599   -0.000013
     41          1           0        0.312432    2.958745    0.000029
     42          1           0       -0.200535   -1.966482   -0.000004
     43          1           0       -2.071757    3.251323    0.000014
     44          1           0       -4.472439    3.603565   -0.000028
     45          1           0       -2.017569   -2.726946    0.000074
     46          1           0       -6.740508    2.698436   -0.000055
     47          1           0       -8.249603    0.766127   -0.000061
     48          1           0       -8.629406   -1.676195   -0.000042
     49          1           0       -6.715474   -3.227669    0.000005
     50          1           0       -4.270204   -3.600240    0.000056
 ---------------------------------------------------------------------

 SCF Done:  E(RwB97XD) =  -1230.28898672     A.U. after    1 cycles

 The electronic state is 1-A.
 Alpha  occ. eigenvalues --  -10.30626 -10.30572 -10.30337 -10.30288 -10.30250
 Alpha  occ. eigenvalues --  -10.30235 -10.30229 -10.30211 -10.30165 -10.30162
 Alpha  occ. eigenvalues --  -10.30160 -10.30127 -10.30104 -10.30040 -10.29351
 Alpha  occ. eigenvalues --  -10.29348 -10.29342 -10.29305 -10.29298 -10.29273
 Alpha  occ. eigenvalues --  -10.29260 -10.29257 -10.29252 -10.29225 -10.29200
 Alpha  occ. eigenvalues --  -10.29192 -10.29178 -10.29171 -10.29115 -10.29110
 Alpha  occ. eigenvalues --  -10.29081 -10.29081  -1.00681  -0.99614  -0.97959
 Alpha  occ. eigenvalues --   -0.95905  -0.94135  -0.93396  -0.90563  -0.89844
 Alpha  occ. eigenvalues --   -0.88622  -0.87299  -0.86434  -0.85305  -0.84462
 Alpha  occ. eigenvalues --   -0.83220  -0.81537  -0.78778  -0.77169  -0.73193
 Alpha  occ. eigenvalues --   -0.72886  -0.72833  -0.71277  -0.70467  -0.69443
 Alpha  occ. eigenvalues --   -0.69003  -0.68528  -0.64408  -0.62649  -0.62148
 Alpha  occ. eigenvalues --   -0.61382  -0.60314  -0.60046  -0.59196  -0.57817
 Alpha  occ. eigenvalues --   -0.56618  -0.55538  -0.54639  -0.54583  -0.53936
 Alpha  occ. eigenvalues --   -0.53075  -0.52546  -0.51812  -0.51664  -0.51180
 Alpha  occ. eigenvalues --   -0.50511  -0.50276  -0.50086  -0.49792  -0.49176
 Alpha  occ. eigenvalues --   -0.48565  -0.48411  -0.48184  -0.47626  -0.46647
 Alpha  occ. eigenvalues --   -0.45773  -0.45258  -0.44395  -0.44065  -0.42682
 Alpha  occ. eigenvalues --   -0.42448  -0.42350  -0.41173  -0.40975  -0.40027
 Alpha  occ. eigenvalues --   -0.39838  -0.38695  -0.37716  -0.35619  -0.34375
 Alpha  occ. eigenvalues --   -0.33440  -0.31848  -0.29984  -0.27320  -0.23498
 Alpha virt. eigenvalues --   -0.04645  -0.00324   0.01947   0.03787   0.05244
 Alpha virt. eigenvalues --    0.06276   0.07691   0.09169   0.09536   0.11802
 Alpha virt. eigenvalues --    0.12238   0.12500   0.12888   0.13118   0.13379

 Mulliken charges:
               1
     1  C    0.192383
     2  C    0.192205
     3  C   -0.235668
     4  C   -0.309676
     5  C   -0.237937
     6  C   -0.316743
     7  C   -0.096260
     8  C   -0.096268
     9  C    0.237101
    10  C    0.221932
    11  C   -0.336135
    12  C   -0.348534
    13  C    0.240392
    14  C    0.245098
    15  C   -0.322404
    16  C   -0.323239
    17  C    0.213229
    18  C    0.177130
    19  C   -0.331685
    20  C    0.144701
    21  C    0.169936
    22  C    0.006129
    23  C   -0.208117
    24  C   -0.035943
    25  C   -0.223975
    26  C   -0.196528
    27  C    0.131992
    28  C   -0.158782
    29  C    0.152547
    30  C   -0.084958
    31  C   -0.188224
    32  C   -0.202363
    33  H    0.110098
    34  H    0.104380
    35  H    0.110036
    36  H    0.104257
    37  H    0.119439
    38  H    0.119461
    39  H    0.104436
    40  H    0.102890
    41  H    0.104489
    42  H    0.103185
    43  H    0.100168
    44  H    0.105326
    45  H    0.098468
    46  H    0.104912
    47  H    0.109354
    48  H    0.115857
    49  H    0.109381
    50  H    0.102524
 Sum of Mulliken charges =   0.00000

 Dipole moment (field-independent basis, Debye):
    X=              0.0053    Y=             -0.0668    Z=              0.0000  Tot=              0.0670
 Quadrupole moment (field-independent basis, Debye-Ang):
   XX=           -155.1883   YY=           -157.6984   ZZ=           -194.4787
   XY=              0.0946   XZ=              0.0001   YZ=              0.0000

  Exact polarizability: 933.119  17.597 376.662   0.001   0.000 162.146
 Approx polarizability: 797.897  17.366 502.611   0.001   0.001 226.874

                      1                      2                      3
                      A                      A                      A
 Frequencies --     22.7472                40.5751                56.9623
 Red. masses --      6.2452                 4.2781                 6.0180
 Frc consts  --      0.0019                 0.0041                 0.0115
 IR Inten    --      0.1832                 0.0085                 0.0210

                      4                      5                      6
                      A                      A                      A
 Frequencies --     76.3295               101.3865               115.4900
 Red. masses --      6.0248                 4.7747                 4.8253
 Frc consts  --      0.0207                 0.0289                 0.0379
 IR Inten    --      0.4315                 0.1723                 0.0333

                      7                      8                      9
                      A                      A                      A
 Frequencies --    161.9434               172.9140               185.7930
 Red. masses --      4.7314                 6.0360                 4.8344
 Frc consts  --      0.0731                 0.1063                 0.0983
 IR Inten    --      0.1310                 0.2718                 0.7359

                     10                     11                     12
                      A                      A                      A
 Frequencies --    205.1167               205.7987               224.9141
 Red. masses --      7.1242                 3.8190                 4.2769
 Frc consts  --      0.1766                 0.0953                 0.1275
 IR Inten    --      0.0325                 5.3157                 2.2358

                     13                     14                     15
                      A                      A                      A
 Frequencies --    253.7566               294.0560               301.9928
 Red. masses --      5.1980                 5.5046                 4.3437
 Frc consts  --      0.1972                 0.2804                 0.2334
 IR Inten    --      0.0381                 0.1094                 0.0521

                     16                     17                     18
                      A                      A                      A
 Frequencies --    338.9915               372.9424               387.6155
 Red. masses --      4.7121                 3.8115                 6.6109
 Frc consts  --      0.3190                 0.3123                 0.5852
 IR Inten    --      0.0786                 0.0039                 1.7731

                     19                     20                     21
                      A                      A                      A
 Frequencies --    395.5521               395.7564               459.8858
 Red. masses --      3.7364                 5.8877                 3.7008
 Frc consts  --      0.3444                 0.5433                 0.4612
 IR Inten    --      0.0223                 4.0112                 0.0420

                     22                     23                     24
                      A                      A                      A
 Frequencies --    460.1219               465.1706               476.1678
 Red. masses --      4.6812                 6.7790                 2.4836
 Frc consts  --      0.5839                 0.8643                 0.3318
 IR Inten    --      0.1167                 0.5416                26.4437

                     25                     26                     27
                      A                      A                      A
 Frequencies --    481.1000               489.5661               499.9456
 Red. masses --      2.4676                 2.9624                 6.2233
 Frc consts  --      0.3365                 0.4183                 0.9165
 IR Inten    --      3.9827                 0.0923                 0.2384

                     28                     29                     30
                      A                      A                      A
 Frequencies --    522.6770               523.5137               532.0548
 Red. masses --      3.5701                 5.7519                 6.6393
 Frc consts  --      0.5746                 0.9288                 1.1074
 IR Inten    --      0.6812                 5.8382                 0.2934

                     31                     32                     33
                      A                      A                      A
 Frequencies --    538.9822               545.5429               555.7365
 Red. masses --      5.3037                 3.6058                 3.3745
 Frc consts  --      0.9078                 0.6323                 0.6140
 IR Inten    --      0.1247                 0.0640                 0.5605

                     34                     35                     36
                      A                      A                      A
 Frequencies --    563.7866               585.5391               605.8922
 Red. masses --      3.4131                 6.5429                 6.9649
 Frc consts  --      0.6392                 1.3217                 1.5065
 IR Inten    --      0.5213                 1.4311                 3.1347

                     37                     38                     39
                      A                      A                      A
 Frequencies --    639.4840               650.8829               664.6177
 Red. masses --      6.8830                 7.0091                 7.0421
 Frc consts  --      1.6584                 1.7495                 1.8327
 IR Inten    --      2.2349                 0.6571                 0.2102

                     40                     41                     42
                      A                      A                      A
 Frequencies --    680.9727               707.5928               713.9596
 Red. masses --      3.9513                 6.7881                 3.9379
 Frc consts  --      1.0796                 2.0025                 1.1827
 IR Inten    --      1.9213                 0.6167                12.2719

                     43                     44                     45
                      A                      A                      A
 Frequencies --    741.9938               759.7274               766.3741
 Red. masses --      4.0049                 1.2758                 5.5827
 Frc consts  --      1.2991                 0.4339                 1.9319
 IR Inten    --      8.1235                44.1015                 5.4277

                     46                     47                     48
                      A                      A                      A
 Frequencies --    768.1481               774.6652               780.1692
 Red. masses --      2.1474                 6.0761                 2.0039
 Frc consts  --      0.7465                 2.1483                 0.7186
 IR Inten    --      5.2301                 0.4099                 1.7326

                     49                     50                     51
                      A                      A                      A
 Frequencies --    786.0087               792.3335               794.9270
 Red. masses --      1.5493                 5.8547                 2.3351
 Frc consts  --      0.5639                 2.1656                 0.8694
 IR Inten    --     13.1619                 0.3170                 0.1367

                     52                     53                     54
                      A                      A                      A
 Frequencies --    811.5328               824.0721               835.1898
 Red. masses --      5.6429                 1.4834                 4.8968
 Frc consts  --      2.1896                 0.5935                 2.0125
 IR Inten    --      0.9561                 9.8697                17.0462

                     55                     56                     57
                      A                      A                      A
 Frequencies --    849.1834               854.8964               857.4679
 Red. masses --      1.4380                 4.5312                 1.3149
 Frc consts  --      0.6109                 1.9512                 0.5696
 IR Inten    --     20.8516                 0.3370                 0.3812

                     58                     59                     60
                      A                      A                      A
 Frequencies --    867.8188               881.0932               882.3070
 Red. masses --      1.8622                 1.6234                 4.3784
 Frc consts  --      0.8263                 0.7425                 2.0082
 IR Inten    --     15.2051                 0.6040                 0.7876

                     61                     62                     63
                      A                      A                      A
 Frequencies --    895.5083               903.6353               916.2472
 Red. masses --      2.8461                 2.0746                 1.8065
 Frc consts  --      1.3447                 0.9981                 0.8935
 IR Inten    --     19.9577                 3.5349                 0.7330

                     64                     65                     66
                      A                      A                      A
 Frequencies --    928.2110               929.8266               935.4714
 Red. masses --      2.9430                 1.6559                 1.5433
 Frc consts  --      1.4940                 0.8435                 0.7957
 IR Inten    --      0.9604                 0.2516                 0.6895

                     67                     68                     69
                      A                      A                      A
 Frequencies --    939.5274               943.1157               949.6497
 Red. masses --      5.4260                 1.9472                 1.6401
 Frc consts  --      2.8220                 1.0204                 0.8715
 IR Inten    --      1.6797                 6.0754                88.7359

                     70                     71                     72
                      A                      A                      A
 Frequencies --    978.6967               993.9687               995.1053
 Red. masses --      1.3081                 1.3109                 1.3393
 Frc consts  --      0.7382                 0.7631                 0.7814
 IR Inten    --      0.5046                 0.5398                 2.5362

                     73                     74                     75
                      A                      A                      A
 Frequencies --   1004.3861              1004.5410              1009.5315
 Red. masses --      1.3095                 1.2937                 5.4532
 Frc consts  --      0.7783                 0.7692                 3.2745
 IR Inten    --      0.0019                 0.0001                 0.7390

                     76                     77                     78
                      A                      A                      A
 Frequencies --   1023.8728              1050.3050              1102.2391
 Red. masses --      2.4582                 4.7500                 2.3134
 Frc consts  --      1.5183                 3.0873                 1.6560
 IR Inten    --      5.5008                 0.7003                 0.8121

                     79                     80                     81
                      A                      A                      A
 Frequencies --   1117.6422              1140.1756              1165.3892
 Red. masses --      1.9087                 2.3123                 1.9226
 Frc consts  --      1.4047                 1.7711                 1.5384
 IR Inten    --      3.4176                 0.1905                 3.5813

                     82                     83                     84
                      A                      A                      A
 Frequencies --   1178.4638              1191.5680              1199.6167
 Red. masses --      1.5134                 1.3416                 1.1179
 Frc consts  --      1.2383                 1.1223                 0.9478
 IR Inten    --      1.4082                 0.6807                 0.0158

                     85                     86                     87
                      A                      A                      A
 Frequencies --   1212.9760              1217.8508              1224.2378
 Red. masses --      1.2677                 1.3372                 1.2882
 Frc consts  --      1.0989                 1.1685                 1.1376
 IR Inten    --      1.1084                 3.7560                 7.0427

                     88                     89                     90
                      A                      A                      A
 Frequencies --   1230.4597              1241.5077              1259.8436
 Red. masses --      1.8035                 1.6073                 1.9483
 Frc consts  --      1.6088                 1.4597                 1.8220
 IR Inten    --      2.2058                 1.1408                 2.8820

                     91                     92                     93
                      A                      A                      A
 Frequencies --   1274.5720              1283.4445              1293.9627
 Red. masses --      2.2854                 2.2569                 2.1075
 Frc consts  --      2.1875                 2.1904                 2.0790
 IR Inten    --      1.4338                 1.0139                 0.7507

                     94                     95                     96
                      A                      A                      A
 Frequencies --   1308.9873              1314.8863              1327.6455
 Red. masses --      2.0212                 1.6955                 2.0007
 Frc consts  --      2.0405                 1.7272                 2.0777
 IR Inten    --      0.3561                 0.0815                 8.6182

                     97                     98                     99
                      A                      A                      A
 Frequencies --   1341.0720              1348.2425              1356.4188
 Red. masses --      2.6960                 2.2663                 2.6346
 Frc consts  --      2.8567                 2.4272                 2.8560
 IR Inten    --     13.1586                10.8398                 3.5432

                    100                    101                    102
                      A                      A                      A
 Frequencies --   1378.9273              1393.1339              1409.5218
 Red. masses --      3.4057                 4.9452                 2.0172
 Frc consts  --      3.8154                 5.6548                 2.3612
 IR Inten    --      0.1017                 1.9815                 0.5231

                    103                    104                    105
                      A                      A                      A
 Frequencies --   1429.1611              1437.1224              1448.0877
 Red. masses --      5.1462                 4.3929                 2.8161
 Frc consts  --      6.1930                 5.3455                 3.4793
 IR Inten    --      0.9472                 0.4500                 3.7344

                    106                    107                    108
                      A                      A                      A
 Frequencies --   1456.3883              1458.5991              1473.5598
 Red. masses --      2.5878                 4.2768                 4.9157
 Frc consts  --      3.2340                 5.3610                 6.2889
 IR Inten    --      1.2003                 3.8811                 4.2635

                    109                    110                    111
                      A                      A                      A
 Frequencies --   1479.4347              1485.7556              1500.3660
 Red. masses --      3.2519                 3.6124                 2.8363
 Frc consts  --      4.1935                 4.6983                 3.7618
 IR Inten    --      2.8078                 1.5866                 0.7458

                    112                    113                    114
                      A                      A                      A
 Frequencies --   1504.7368              1521.1743              1562.5305
 Red. masses --      2.8653                 4.3093                 3.8937
 Frc consts  --      3.8224                 5.8751                 5.6011
 IR Inten    --      0.2486                 1.1408                10.6840

                    115                    116                    117
                      A                      A                      A
 Frequencies --   1573.6451              1602.6449              1615.1926
 Red. masses --      4.4874                 6.1593                 6.7631
 Frc consts  --      6.5472                 9.3208                10.3954
 IR Inten    --      0.7068                 0.6080                 1.3270

                    118                    119                    120
                      A                      A                      A
 Frequencies --   1618.7466              1632.8209              1660.7235
 Red. masses --      6.5653                 6.4285                 6.0363
 Frc consts  --     10.1359                10.0980                 9.8087
 IR Inten    --      7.0556                 1.5070                 3.6972

                    121                    122                    123
                      A                      A                      A
 Frequencies --   1677.2888              1679.2545              1690.5196
 Red. masses --      6.4401                 6.7718                 6.5931
 Frc consts  --     10.6748                11.2509                11.1015
 IR Inten    --      3.0221                 0.0267                 1.7746

                    124                    125                    126
                      A                      A                      A
 Frequencies --   1698.8880              1719.3891              1722.1472
 Red. masses --      6.9538                 6.5153                 7.1619
 Frc consts  --     11.8250                11.3484                12.5147
 IR Inten    --      1.6390                 5.6303                 0.0113

                    127                    128                    129
                      A                      A                      A
 Frequencies --   3183.8808              3185.1446              3185.4426
 Red. masses --      1.0902                 1.0908                 1.0906
 Frc consts  --      6.5115                 6.5203                 6.5204
 IR Inten    --      0.6261                 1.0267                 8.7042

                    130                    131                    132
                      A                      A                      A
 Frequencies --   3186.0668              3186.8056              3187.9441
 Red. masses --      1.0900                 1.0878                 1.0895
 Frc consts  --      6.5193                 6.5091                 6.5238
 IR Inten    --      5.8601                 5.9412                 9.4982

                    133                    134                    135
                      A                      A                      A
 Frequencies --   3188.2692              3189.3000              3189.5940
 Red. masses --      1.0861                 1.0901                 1.0868
 Frc consts  --      6.5046                 6.5330                 6.5144
 IR Inten    --      2.2107                16.2399                 0.2532

                    136                    137                    138
                      A                      A                      A
 Frequencies --   3193.0864              3195.0607              3197.6429
 Red. masses --      1.0882                 1.0892                 1.0907
 Frc consts  --      6.5372                 6.5510                 6.5707
 IR Inten    --      3.0657                 2.9162                12.4348

                    139                    140                    141
                      A                      A                      A
 Frequencies --   3207.1472              3207.3767              3212.9478
 Red. masses --      1.0976                 1.0953                 1.0915
 Frc consts  --      6.6515                 6.6389                 6.6390
 IR Inten    --     27.4501                23.4595                 1.6558

                    142                    143                    144
                      A                      A                      A
 Frequencies --   3216.2206              3219.3901              3236.8725
 Red. masses --      1.0971                 1.0981                 1.0901
 Frc consts  --      6.6863                 6.7057                 6.7291
 IR Inten    --     34.1481                33.8866                10.2054

 - Thermochemistry -
 -------------------
 Temperature   298.150 Kelvin.  Pressure   1.00000 Atm.
 Atom     1 has atomic number  6 and mass  12.00000

 Molecular mass:   402.14085 amu.
 Principal axes and moments of inertia in atomic units:
                           1         2         3
     Eigenvalues --  3064.12123********************
           X            1.00000   0.00002   0.00000
           Y           -0.00002   1.00000   0.00000
           Z            0.00000   0.00000   1.00000
 This molecule is an asymmetric top.
 Rotational symmetry number  1.
 Warning -- assumption of classical behavior for rotation
           may cause significant error
 Rotational temperatures (Kelvin)      0.02827     0.00241     0.00222
 Rotational constants (GHZ):           0.58899     0.05019     0.04625
 Zero-point vibrational energy    1043338.0 (Joules/Mol)
                                  249.36376 (Kcal/Mol)
 Warning -- explicit consideration of  36 degrees of freedom as
           vibrations may cause significant error
 Vibrational temperatures:     32.73    58.38    81.96   109.82   145.87
          (Kelvin)            166.16   233.00   248.78   267.31   295.12
                              296.10   323.60   365.10   423.08   434.50
                              487.73   536.58   557.69   569.11   569.40
                              661.67   662.01   669.28   685.10   692.19
                              704.38   719.31   752.01   753.22   765.51
                              775.47   784.91   799.58   811.16   842.46
                              871.74   920.07   936.47   956.24   979.77
                             1018.07  1027.23  1067.56  1093.08  1102.64
                             1105.19  1114.57  1122.49  1130.89  1139.99
                             1143.72  1167.61  1185.65  1201.65  1221.78
                             1230.00  1233.70  1248.60  1267.69  1269.44
                             1288.44  1300.13  1318.27  1335.49  1337.81
                             1345.93  1351.77  1356.93  1366.33  1408.12
                             1430.10  1431.73  1445.09  1445.31  1452.49
                             1473.12  1511.15  1585.87  1608.04  1640.46
                             1676.73  1695.54  1714.40  1725.98  1745.20
                             1752.21  1761.40  1770.35  1786.25  1812.63
                             1833.82  1846.59  1861.72  1883.34  1891.83
                             1910.18  1929.50  1939.82  1951.58  1983.97
                             2004.41  2027.98  2056.24  2067.70  2083.47
                             2095.42  2098.60  2120.12  2128.57  2137.67
                             2158.69  2164.98  2188.63  2248.13  2264.12
                             2305.85  2323.90  2329.01  2349.26  2389.41
                             2413.24  2416.07  2432.28  2444.32  2473.81
                             2477.78  4580.89  4582.71  4583.14  4584.03
                             4585.10  4586.73  4587.20  4588.69  4589.11
                             4594.13  4596.97  4600.69  4614.36  4614.69
                             4622.71  4627.42  4631.98  4657.13

 Zero-point correction=                           0.397386 (Hartree/Particle)
 Thermal correction to Energy=                    0.418098
 Thermal correction to Enthalpy=                  0.419042
 Thermal correction to Gibbs Free Energy=         0.348285
 Sum of electronic and zero-point Energies=          -1229.891600
 Sum of electronic and thermal Energies=             -1229.870889
 Sum of electronic and thermal Enthalpies=           -1229.869945
 Sum of electronic and thermal Free Energies=        -1229.940702

                     E (Thermal)             CV                S
                      KCal/Mol        Cal/Mol-Kelvin    Cal/Mol-Kelvin
 Total                  262.360             90.506            148.921
 Electronic               0.000              0.000              0.000
 Translational            0.889              2.981             43.866
 Rotational               0.889              2.981             36.706
 Vibrational            260.583             84.545             68.348
 Vibration     1          0.593              1.985              6.379
 Vibration     2          0.594              1.981              5.231
 Vibration     3          0.596              1.975              4.560
 Vibration     4          0.599              1.965              3.983
 Vibration     5          0.604              1.948              3.427
 Vibration     6          0.608              1.937              3.174
 Vibration     7          0.622              1.889              2.527
 Vibration     8          0.626              1.876              2.404
 Vibration     9          0.632              1.859              2.269
 Vibration    10          0.640              1.833              2.087
 Vibration    11          0.640              1.832              2.081
 Vibration    12          0.650              1.803              1.919
 Vibration    13          0.665              1.756              1.704
 Vibration    14          0.689              1.685              1.451
 Vibration    15          0.694              1.670              1.406
 Vibration    16          0.719              1.598              1.217
 Vibration    17          0.744              1.528              1.068
 Vibration    18          0.756              1.497              1.009
 Vibration    19          0.762              1.480              0.979
 Vibration    20          0.762              1.479              0.978
 Vibration    21          0.818              1.339              0.766
 Vibration    22          0.818              1.339              0.766
 Vibration    23          0.823              1.327              0.751
 Vibration    24          0.833              1.303              0.720
 Vibration    25          0.837              1.292              0.707
 Vibration    26          0.845              1.273              0.685
 Vibration    27          0.855              1.250              0.658
 Vibration    28          0.878              1.200              0.604
 Vibration    29          0.878              1.198              0.602
 Vibration    30          0.887              1.179              0.583
 Vibration    31          0.894              1.164              0.567
 Vibration    32          0.901              1.149              0.553
 Vibration    33          0.911              1.127              0.532
 Vibration    34          0.920              1.110              0.516
 Vibration    35          0.943              1.063              0.475
 Vibration    36          0.965              1.019              0.440

 Optimization completed.
    -- Stationary point found.
 Normal termination of Gaussian 09 at Sun Jul 28 05:46:58 2019.
