 Gaussian 09, Revision D.01,
 Gaussian 09:  AM64L-G09RevD.01 24-Apr-2013

 ----------------------------------------------------------------------
 #P wB97XD/def2tzvp opt=(tight) freq integral(Grid=ultrafine) # SCF(Max
 Cycle=380) 5d 7f GFPrint
 ----------------------------------------------------------------------

 ---------------------------------------
 The PBEPBE optimization and frequencies
 ---------------------------------------
 Symbolic Z-matrix:
 Charge =  0 Multiplicity = 1

 SCF Done:  E(RwB97XD) =  -1230.31520003     A.U. after   14 cycles
 SCF Done:  E(RwB97XD) =  -1230.31883629     A.U. after   13 cycles
 SCF Done:  E(RwB97XD) =  -1230.31892763     A.U. after   11 cycles
 SCF Done:  E(RwB97XD) =  -1230.31893662     A.U. after   11 cycles
 SCF Done:  E(RwB97XD) =  -1230.31893950     A.U. after   10 cycles
 SCF Done:  E(RwB97XD) =  -1230.31894256     A.U. after   11 cycles
 SCF Done:  E(RwB97XD) =  -1230.31894423     A.U. after   11 cycles
 SCF Done:  E(RwB97XD) =  -1230.31894430     A.U. after    7 cycles
 SCF Done:  E(RwB97XD) =  -1230.31894431     A.U. after    7 cycles
 SCF Done:  E(RwB97XD) =  -1230.31894431     A.U. after    7 cycles
 SCF Done:  E(RwB97XD) =  -1230.31894431     A.U. after    4 cycles
 Optimization completed.
    -- Stationary point found.

 1\1\GINC-DS505-29\FOpt\RwB97XD\def2TZVP\C32H18\MINENKY\28-Jul-2019\0\\
 #P wB97XD/def2tzvp opt=(tight) freq integral(Grid=ultrafine) # SCF(Max
 Cycle=380) 5d 7f GFPrint\\The PBEPBE optimization and frequencies\\0,1
 \C,3.011103324,2.3362317018,5.8593239302\C,3.7512527597,3.2764091103,5
 .087985796\C,3.1648560391,2.3193878665,7.3196651714\C,2.1865451606,1.4
 424379133,5.2083983794\C,4.6561535521,4.2137702039,5.7655014512\C,3.61
 95179477,3.2626396368,3.7150604847\C,4.9076915156,4.0783326612,7.14741
 48235\C,4.1519548979,3.1183136319,7.9350140893\C,4.3496720044,3.035797

 Normal termination of Gaussian 09 at Sun Jul 28 13:35:06 2019.

 ---------------------------------------------------------------------
 #P Geom=AllCheck Guess=TCheck SCRF=Check GenChk RwB97XD/def2TZVP Freq
 ---------------------------------------------------------------------

 Structure from the checkpoint file:  "m1_00_192-54-1-C32H18_wB97XD.chk"
 ---------------------------------------
 The PBEPBE optimization and frequencies
 ---------------------------------------
 Charge =  0 Multiplicity = 1

                         Standard orientation:
 ---------------------------------------------------------------------
 Center     Atomic      Atomic             Coordinates (Angstroms)
 Number     Number       Type             X           Y           Z
 ---------------------------------------------------------------------
      1          6           0        2.492758   -0.711815   -0.104965
      2          6           0        2.492755    0.711814   -0.104940
      3          6           0        1.220414   -1.434233   -0.230557
      4          6           0        3.691416   -1.378096    0.042533
      5          6           0        1.220411    1.434230   -0.230541
      6          6           0        3.691405    1.378098    0.042603
      7          6           0       -0.000001    0.726821   -0.192258
      8          6           0        0.000001   -0.726825   -0.192257
      9          6           0       -1.220412   -1.434234   -0.230543
     10          6           0       -1.220414    1.434228   -0.230561
     11          6           0        1.194367    2.817291   -0.384290
     12          6           0        1.194369   -2.817294   -0.384298
     13          6           0       -2.492758    0.711812   -0.104968
     14          6           0       -2.492755   -0.711816   -0.104942
     15          6           0       -3.691408   -1.378098    0.042603
     16          6           0       -3.691414    1.378096    0.042531
     17          6           0       -1.194369    2.817289   -0.384304
     18          6           0       -1.194368   -2.817295   -0.384293
     19          6           0       -4.913934    0.707885    0.178574
     20          6           0       -4.913931   -0.707885    0.178617
     21          6           0       -6.146209   -1.396210    0.328123
     22          6           0       -6.146217    1.396212    0.328035
     23          6           0       -0.000001    3.501009   -0.472366
     24          6           0        0.000000   -3.501013   -0.472365
     25          6           0       -7.312678   -0.707757    0.466379
     26          6           0       -7.312682    0.707762    0.466333
     27          6           0        4.913936   -0.707882    0.178575
     28          6           0        4.913930    0.707888    0.178617
     29          6           0        6.146219   -1.396207    0.328034
     30          6           0        6.146207    1.396214    0.328122
     31          6           0        7.312684   -0.707755    0.466332
     32          6           0        7.312677    0.707764    0.466377
     33          1           0        3.717205   -2.458320    0.077083
     34          1           0        3.717182    2.458321    0.077214
     35          1           0        2.114910    3.376519   -0.459880
     36          1           0        2.114909   -3.376525   -0.459886
     37          1           0       -3.717186   -2.458321    0.077215
     38          1           0       -3.717200    2.458320    0.077083
     39          1           0       -2.114910    3.376519   -0.459896
     40          1           0       -2.114909   -3.376523   -0.459888
     41          1           0       -6.142865   -2.479959    0.329233
     42          1           0       -6.142879    2.479962    0.329076
     43          1           0       -0.000001    4.574494   -0.611114
     44          1           0        0.000001   -4.574498   -0.611113
     45          1           0       -8.248451   -1.240511    0.578273
     46          1           0       -8.248458    1.240517    0.578194
     47          1           0        6.142884   -2.479957    0.329076
     48          1           0        6.142861    2.479964    0.329231
     49          1           0        8.248460   -1.240509    0.578191
     50          1           0        8.248449    1.240519    0.578271
 ---------------------------------------------------------------------

 SCF Done:  E(RwB97XD) =  -1230.31894431     A.U. after    1 cycles

 The electronic state is 1-A.
 Alpha  occ. eigenvalues --  -10.30577 -10.30557 -10.30538 -10.30530 -10.30524
 Alpha  occ. eigenvalues --  -10.30504 -10.30492 -10.30489 -10.30475 -10.30470
 Alpha  occ. eigenvalues --  -10.29963 -10.29963 -10.29916 -10.29916 -10.29201
 Alpha  occ. eigenvalues --  -10.29201 -10.29195 -10.29195 -10.29135 -10.29134
 Alpha  occ. eigenvalues --  -10.29132 -10.29131 -10.29119 -10.29119 -10.29080
 Alpha  occ. eigenvalues --  -10.29080 -10.29044 -10.29043 -10.28961 -10.28961
 Alpha  occ. eigenvalues --  -10.28935 -10.28935  -1.00962  -0.99154  -0.97904
 Alpha  occ. eigenvalues --   -0.96510  -0.94943  -0.92764  -0.89846  -0.89506
 Alpha  occ. eigenvalues --   -0.88457  -0.88293  -0.86477  -0.84509  -0.84402
 Alpha  occ. eigenvalues --   -0.81894  -0.81458  -0.80878  -0.76139  -0.73702
 Alpha  occ. eigenvalues --   -0.72819  -0.72688  -0.72555  -0.70132  -0.69636
 Alpha  occ. eigenvalues --   -0.67569  -0.67555  -0.65869  -0.63881  -0.61984
 Alpha  occ. eigenvalues --   -0.61943  -0.59996  -0.58591  -0.58451  -0.58356
 Alpha  occ. eigenvalues --   -0.57301  -0.55874  -0.54355  -0.54343  -0.54312
 Alpha  occ. eigenvalues --   -0.52606  -0.52526  -0.52146  -0.51685  -0.51347
 Alpha  occ. eigenvalues --   -0.50910  -0.50854  -0.50102  -0.49969  -0.49567
 Alpha  occ. eigenvalues --   -0.48986  -0.48259  -0.47690  -0.46655  -0.46032
 Alpha  occ. eigenvalues --   -0.45659  -0.44857  -0.44462  -0.44429  -0.43287
 Alpha  occ. eigenvalues --   -0.42783  -0.41686  -0.41403  -0.40340  -0.39825
 Alpha  occ. eigenvalues --   -0.39205  -0.37772  -0.37698  -0.36343  -0.35076
 Alpha  occ. eigenvalues --   -0.32196  -0.32008  -0.28145  -0.28019  -0.27507
 Alpha virt. eigenvalues --   -0.00778  -0.00216   0.00428   0.03795   0.03813
 Alpha virt. eigenvalues --    0.06588   0.08312   0.08729   0.10521   0.11403
 Alpha virt. eigenvalues --    0.11749   0.12353   0.12551   0.12869   0.13464

 Mulliken charges:
               1
     1  C    0.160165
     2  C    0.160152
     3  C    0.117384
     4  C   -0.265294
     5  C    0.117389
     6  C   -0.265286
     7  C   -0.174437
     8  C   -0.174438
     9  C    0.117387
    10  C    0.117384
    11  C   -0.179592
    12  C   -0.179594
    13  C    0.160165
    14  C    0.160150
    15  C   -0.265286
    16  C   -0.265292
    17  C   -0.179593
    18  C   -0.179593
    19  C    0.168128
    20  C    0.168114
    21  C   -0.235409
    22  C   -0.235409
    23  C   -0.106596
    24  C   -0.106596
    25  C   -0.098783
    26  C   -0.098785
    27  C    0.168129
    28  C    0.168114
    29  C   -0.235409
    30  C   -0.235409
    31  C   -0.098785
    32  C   -0.098783
    33  H    0.095677
    34  H    0.095679
    35  H    0.096404
    36  H    0.096404
    37  H    0.095679
    38  H    0.095677
    39  H    0.096404
    40  H    0.096404
    41  H    0.108547
    42  H    0.108546
    43  H    0.110147
    44  H    0.110147
    45  H    0.118225
    46  H    0.118225
    47  H    0.108546
    48  H    0.108547
    49  H    0.118225
    50  H    0.118225
 Sum of Mulliken charges =   0.00000

 Dipole moment (field-independent basis, Debye):
    X=              0.0000    Y=              0.0000    Z=              0.0397  Tot=              0.0397
 Quadrupole moment (field-independent basis, Debye-Ang):
   XX=           -155.6387   YY=           -157.0152   ZZ=           -193.6526
   XY=             -0.0001   XZ=              0.0000   YZ=              0.0000

  Exact polarizability: 702.881   0.000 388.741   0.000   0.000 165.710
 Approx polarizability: 631.214   0.000 501.216   0.000   0.000 231.183

                      1                      2                      3
                      A                      A                      A
 Frequencies --     15.4621                43.0054                58.2709
 Red. masses --      6.0903                 4.0236                 4.0661
 Frc consts  --      0.0009                 0.0044                 0.0081
 IR Inten    --      0.0225                 0.0000                 0.0084

                      4                      5                      6
                      A                      A                      A
 Frequencies --     65.8239                82.5910               111.1481
 Red. masses --      5.7203                 4.8772                 5.6417
 Frc consts  --      0.0146                 0.0196                 0.0411
 IR Inten    --      0.0280                 2.5221                 0.1113

                      7                      8                      9
                      A                      A                      A
 Frequencies --    153.1895               156.0257               168.1709
 Red. masses --      4.2357                 4.2719                 5.8134
 Frc consts  --      0.0586                 0.0613                 0.0969
 IR Inten    --      0.0000                 0.0005                 0.1069

                     10                     11                     12
                      A                      A                      A
 Frequencies --    183.6262               226.1331               229.4041
 Red. masses --      4.7754                 3.9060                 7.4461
 Frc consts  --      0.0949                 0.1177                 0.2309
 IR Inten    --      0.0000                 0.0675                 0.0422

                     13                     14                     15
                      A                      A                      A
 Frequencies --    249.5420               296.4438               321.8259
 Red. masses --      3.5086                 4.6202                 5.3740
 Frc consts  --      0.1287                 0.2392                 0.3279
 IR Inten    --      0.0000                 0.0505                 1.0330

                     16                     17                     18
                      A                      A                      A
 Frequencies --    327.2445               335.7852               338.1015
 Red. masses --      5.8211                 5.7150                 4.8541
 Frc consts  --      0.3673                 0.3797                 0.3269
 IR Inten    --      0.0016                 0.0000                 1.8202

                     19                     20                     21
                      A                      A                      A
 Frequencies --    350.9174               418.3761               430.7328
 Red. masses --      5.0293                 3.8477                 3.7115
 Frc consts  --      0.3649                 0.3968                 0.4057
 IR Inten    --      0.0185                 1.5682                 1.3508

                     22                     23                     24
                      A                      A                      A
 Frequencies --    439.3334               444.6558               464.6348
 Red. masses --      6.2051                 4.7561                 5.8628
 Frc consts  --      0.7056                 0.5541                 0.7457
 IR Inten    --      0.0010                 0.0071                 0.0000

                     25                     26                     27
                      A                      A                      A
 Frequencies --    482.5100               484.5699               511.8200
 Red. masses --      2.5185                 2.6865                 4.5631
 Frc consts  --      0.3455                 0.3717                 0.7043
 IR Inten    --      0.7237                26.1381                 0.0000

                     28                     29                     30
                      A                      A                      A
 Frequencies --    527.5110               555.2954               559.3424
 Red. masses --      3.6976                 5.7168                 3.7683
 Frc consts  --      0.6062                 1.0386                 0.6946
 IR Inten    --      0.2684                 0.0215                 0.0323

                     31                     32                     33
                      A                      A                      A
 Frequencies --    569.2827               576.7529               581.9695
 Red. masses --      7.4645                 3.7864                 4.6359
 Frc consts  --      1.4253                 0.7421                 0.9251
 IR Inten    --      0.0000                 0.1541                 0.0528

                     34                     35                     36
                      A                      A                      A
 Frequencies --    587.1732               600.4144               606.9558
 Red. masses --      7.5024                 4.0549                 7.0806
 Frc consts  --      1.5240                 0.8612                 1.5369
 IR Inten    --     35.5971                 0.0000                 0.3393

                     37                     38                     39
                      A                      A                      A
 Frequencies --    642.2777               648.4464               660.9079
 Red. masses --      4.1297                 6.5177                 4.5471
 Frc consts  --      1.0037                 1.6147                 1.1702
 IR Inten    --      0.0000                 2.1326                 0.0000

                     40                     41                     42
                      A                      A                      A
 Frequencies --    667.9773               685.6720               731.7154
 Red. masses --      6.7576                 7.1109                 4.1939
 Frc consts  --      1.7765                 1.9697                 1.3230
 IR Inten    --      0.0151                 0.1360                 0.0973

                     43                     44                     45
                      A                      A                      A
 Frequencies --    738.3123               741.3019               769.9721
 Red. masses --      7.5984                 1.7107                 1.2609
 Frc consts  --      2.4403                 0.5539                 0.4404
 IR Inten    --      0.0000                77.4861                33.9694

                     46                     47                     48
                      A                      A                      A
 Frequencies --    771.0517               781.9633               782.0477
 Red. masses --      1.3066                 1.8633                 4.2315
 Frc consts  --      0.4577                 0.6713                 1.5248
 IR Inten    --      0.8706                 1.8977                 0.0000

                     49                     50                     51
                      A                      A                      A
 Frequencies --    789.5826               796.6180               800.5258
 Red. masses --      5.8324                 2.2888                 6.0538
 Frc consts  --      2.1424                 0.8558                 2.2858
 IR Inten    --      0.0066                 0.0000                 1.3768

                     52                     53                     54
                      A                      A                      A
 Frequencies --    806.3990               830.5720               836.9281
 Red. masses --      1.9687                 3.9344                 2.7939
 Frc consts  --      0.7543                 1.5991                 1.1530
 IR Inten    --      1.0593                20.9270                55.7531

                     55                     56                     57
                      A                      A                      A
 Frequencies --    865.7993               873.1671               873.5978
 Red. masses --      1.3991                 1.4291                 4.3264
 Frc consts  --      0.6179                 0.6420                 1.9453
 IR Inten    --      0.1021                 0.0000                 2.8238

                     58                     59                     60
                      A                      A                      A
 Frequencies --    896.4197               899.4376               922.2251
 Red. masses --      7.1045                 3.8176                 1.5429
 Frc consts  --      3.3636                 1.8196                 0.7731
 IR Inten    --      3.1935                 0.2232                 0.8254

                     61                     62                     63
                      A                      A                      A
 Frequencies --    922.9529               932.3663               932.4095
 Red. masses --      1.6071                 1.4591                 1.6558
 Frc consts  --      0.8066                 0.7473                 0.8481
 IR Inten    --     57.2471                 0.5506                 0.0001

                     64                     65                     66
                      A                      A                      A
 Frequencies --    935.4408               939.7982               945.9173
 Red. masses --      1.9658                 2.4657                 4.5875
 Frc consts  --      1.0135                 1.2831                 2.4184
 IR Inten    --      0.0000                 0.6353                 0.0000

                     67                     68                     69
                      A                      A                      A
 Frequencies --    982.1005               988.6333               989.2028
 Red. masses --      5.3974                 1.3608                 1.3677
 Frc consts  --      3.0672                 0.7836                 0.7885
 IR Inten    --      0.2162                 3.0728                 0.0766

                     70                     71                     72
                      A                      A                      A
 Frequencies --    992.0985               992.5324              1003.2281
 Red. masses --      1.3231                 1.3403                 1.2883
 Frc consts  --      0.7673                 0.7779                 0.7640
 IR Inten    --      2.3273                 0.1109                 0.0000

                     73                     74                     75
                      A                      A                      A
 Frequencies --   1003.2418              1033.6891              1046.0638
 Red. masses --      1.2885                 6.9993                 2.4926
 Frc consts  --      0.7641                 4.4064                 1.6070
 IR Inten    --      0.0014                 1.8132                 0.0438

                     76                     77                     78
                      A                      A                      A
 Frequencies --   1048.1844              1077.9239              1098.3439
 Red. masses --      2.2629                 3.1424                 4.1714
 Frc consts  --      1.4648                 2.1513                 2.9649
 IR Inten    --      8.3862                 0.0327                 0.0000

                     79                     80                     81
                      A                      A                      A
 Frequencies --   1135.1931              1135.6908              1154.7326
 Red. masses --      2.0665                 2.3928                 1.6158
 Frc consts  --      1.5690                 1.8184                 1.2694
 IR Inten    --      0.3034                 0.0436                10.6886

                     82                     83                     84
                      A                      A                      A
 Frequencies --   1174.2964              1176.7390              1178.7778
 Red. masses --      1.5182                 1.3856                 1.5303
 Frc consts  --      1.2335                 1.1305                 1.2528
 IR Inten    --      5.9458                 7.6913                 0.0000

                     85                     86                     87
                      A                      A                      A
 Frequencies --   1183.9548              1215.2828              1218.5902
 Red. masses --      1.2940                 1.2141                 1.1985
 Frc consts  --      1.0687                 1.0565                 1.0486
 IR Inten    --      0.0031                 4.4803                 0.0000

                     88                     89                     90
                      A                      A                      A
 Frequencies --   1233.1302              1236.1673              1258.1201
 Red. masses --      1.5652                 1.7320                 1.6220
 Frc consts  --      1.4023                 1.5593                 1.5127
 IR Inten    --      3.3715                 0.0464                 0.0000

                     91                     92                     93
                      A                      A                      A
 Frequencies --   1259.9548              1299.6549              1304.8705
 Red. masses --      1.5877                 4.0336                 2.8080
 Frc consts  --      1.4851                 4.0142                 2.8170
 IR Inten    --      8.1164                 0.5392                 0.3449

                     94                     95                     96
                      A                      A                      A
 Frequencies --   1308.4650              1314.0355              1330.4248
 Red. masses --      4.0841                 1.6553                 2.1700
 Frc consts  --      4.1198                 1.6840                 2.2630
 IR Inten    --      2.1574                 0.0000                 0.0000

                     97                     98                     99
                      A                      A                      A
 Frequencies --   1336.5842              1344.5735              1354.3494
 Red. masses --      1.7732                 2.8472                 4.7606
 Frc consts  --      1.8664                 3.0328                 5.1449
 IR Inten    --      5.2449                 2.8020                 0.0682

                    100                    101                    102
                      A                      A                      A
 Frequencies --   1357.2833              1378.9631              1391.5858
 Red. masses --      2.8620                 2.3083                 2.7386
 Frc consts  --      3.1065                 2.5861                 3.1247
 IR Inten    --      0.0000                11.0234                 0.0000

                    103                    104                    105
                      A                      A                      A
 Frequencies --   1394.9184              1398.4834              1446.9798
 Red. masses --      4.1840                 4.0834                 4.7481
 Frc consts  --      4.7967                 4.7053                 5.8572
 IR Inten    --      0.0009                 7.8434                 5.0511

                    106                    107                    108
                      A                      A                      A
 Frequencies --   1449.9537              1457.1779              1467.1116
 Red. masses --      4.9279                 2.4469                 4.3649
 Frc consts  --      6.1040                 3.0612                 5.5354
 IR Inten    --      0.0024                 5.4634                 0.0446

                    109                    110                    111
                      A                      A                      A
 Frequencies --   1488.1355              1494.9589              1519.5675
 Red. masses --      2.3926                 3.1649                 2.4463
 Frc consts  --      3.1218                 4.1674                 3.3281
 IR Inten    --     59.2007                 0.0000                 0.0188

                    112                    113                    114
                      A                      A                      A
 Frequencies --   1524.9663              1526.1937              1547.6209
 Red. masses --      2.6189                 4.3245                 2.9338
 Frc consts  --      3.5882                 5.9348                 4.1400
 IR Inten    --      6.9560                 8.6656                 0.0000

                    115                    116                    117
                      A                      A                      A
 Frequencies --   1550.6957              1570.7474              1633.1583
 Red. masses --      4.1398                 4.3020                 5.5029
 Frc consts  --      5.8653                 6.2537                 8.6476
 IR Inten    --     19.4168                 0.8374                22.9255

                    118                    119                    120
                      A                      A                      A
 Frequencies --   1644.5605              1650.3766              1664.8382
 Red. masses --      6.2226                 7.2364                 6.5585
 Frc consts  --      9.9156                11.6128                10.7102
 IR Inten    --      0.0256                 9.2364                 0.0000

                    121                    122                    123
                      A                      A                      A
 Frequencies --   1666.9588              1677.6508              1680.3647
 Red. masses --      5.0566                 6.2728                 6.7119
 Frc consts  --      8.2786                10.4019                11.1661
 IR Inten    --      2.0834                 0.6594                 0.0000

                    124                    125                    126
                      A                      A                      A
 Frequencies --   1680.9451              1712.0523              1713.8942
 Red. masses --      6.4949                 6.4763                 6.6653
 Frc consts  --     10.8125                11.1844                11.5355
 IR Inten    --      9.2138                 0.0000                 0.0921

                    127                    128                    129
                      A                      A                      A
 Frequencies --   3187.4106              3187.4186              3191.8006
 Red. masses --      1.0861                 1.0861                 1.0888
 Frc consts  --      6.5014                 6.5014                 6.5353
 IR Inten    --      0.0000                 5.3367                 0.4233

                    130                    131                    132
                      A                      A                      A
 Frequencies --   3191.8108              3203.1125              3203.4202
 Red. masses --      1.0888                 1.0881                 1.0881
 Frc consts  --      6.5353                 6.5773                 6.5790
 IR Inten    --      0.0003                16.8897                 0.2985

                    133                    134                    135
                      A                      A                      A
 Frequencies --   3206.4294              3206.4481              3215.0167
 Red. masses --      1.0944                 1.0944                 1.0907
 Frc consts  --      6.6292                 6.6292                 6.6425
 IR Inten    --      0.0000                37.2345                 0.0000

                    136                    137                    138
                      A                      A                      A
 Frequencies --   3216.3758              3217.6034              3218.7380
 Red. masses --      1.0912                 1.0914                 1.0937
 Frc consts  --      6.6510                 6.6571                 6.6758
 IR Inten    --      7.3831                 3.7131                 0.0006

                    139                    140                    141
                      A                      A                      A
 Frequencies --   3219.4696              3219.7215              3239.8076
 Red. masses --      1.0977                 1.0961                 1.0883
 Frc consts  --      6.7035                 6.6945                 6.7302
 IR Inten    --     48.3011                 0.7031                 0.0000

                    142                    143                    144
                      A                      A                      A
 Frequencies --   3240.3941              3243.4394              3244.0669
 Red. masses --      1.0883                 1.0921                 1.0919
 Frc consts  --      6.7328                 6.7690                 6.7702
 IR Inten    --     10.7104                32.4143                 0.2408

 - Thermochemistry -
 -------------------
 Temperature   298.150 Kelvin.  Pressure   1.00000 Atm.
 Atom     1 has atomic number  6 and mass  12.00000

 Molecular mass:   402.14085 amu.
 Principal axes and moments of inertia in atomic units:
                           1         2         3
     Eigenvalues --  4371.92210********************
           X            1.00000   0.00000   0.00000
           Y            0.00000   1.00000   0.00000
           Z            0.00000   0.00000   1.00000
 This molecule is an asymmetric top.
 Rotational symmetry number  1.
 Warning -- assumption of classical behavior for rotation
           may cause significant error
 Rotational temperatures (Kelvin)      0.01981     0.00338     0.00292
 Rotational constants (GHZ):           0.41280     0.07050     0.06075
 Zero-point vibrational energy    1046297.6 (Joules/Mol)
                                  250.07113 (Kcal/Mol)
 Warning -- explicit consideration of  36 degrees of freedom as
           vibrations may cause significant error
 Vibrational temperatures:     22.25    61.88    83.84    94.71   118.83
          (Kelvin)            159.92   220.41   224.49   241.96   264.20
                              325.35   330.06   359.03   426.52   463.04
                              470.83   483.12   486.45   504.89   601.95
                              619.73   632.10   639.76   668.50   694.22
                              697.19   736.39   758.97   798.95   804.77
                              819.07   829.82   837.32   844.81   863.86
                              873.27   924.09   932.97   950.90   961.07
                              986.53  1052.77  1062.27  1066.57  1107.82
                             1109.37  1125.07  1125.19  1136.03  1146.15
                             1151.78  1160.23  1195.01  1204.15  1245.69
                             1256.29  1256.91  1289.75  1294.09  1326.87
                             1327.92  1341.47  1341.53  1345.89  1352.16
                             1360.96  1413.02  1422.42  1423.24  1427.41
                             1428.03  1443.42  1443.44  1487.25  1505.05
                             1508.10  1550.89  1580.27  1633.29  1634.00
                             1661.40  1689.55  1693.06  1696.00  1703.44
                             1748.52  1753.28  1774.20  1778.57  1810.15
                             1812.79  1869.91  1877.42  1882.59  1890.60
                             1914.18  1923.04  1934.54  1948.60  1952.83
                             1984.02  2002.18  2006.97  2012.10  2081.88
                             2086.16  2096.55  2110.84  2141.09  2150.91
                             2186.32  2194.08  2195.85  2226.68  2231.10
                             2259.95  2349.75  2366.15  2374.52  2395.33
                             2398.38  2413.76  2417.67  2418.50  2463.26
                             2465.91  4585.97  4585.98  4592.28  4592.30
                             4608.56  4609.00  4613.33  4613.36  4625.69
                             4627.64  4629.41  4631.04  4632.09  4632.46
                             4661.35  4662.20  4666.58  4667.48

 Zero-point correction=                           0.398514 (Hartree/Particle)
 Thermal correction to Energy=                    0.419353
 Thermal correction to Enthalpy=                  0.420297
 Thermal correction to Gibbs Free Energy=         0.348732
 Sum of electronic and zero-point Energies=          -1229.920431
 Sum of electronic and thermal Energies=             -1229.899591
 Sum of electronic and thermal Enthalpies=           -1229.898647
 Sum of electronic and thermal Free Energies=        -1229.970212

                     E (Thermal)             CV                S
                      KCal/Mol        Cal/Mol-Kelvin    Cal/Mol-Kelvin
 Total                  263.148             90.040            150.621
 Electronic               0.000              0.000              0.000
 Translational            0.889              2.981             43.866
 Rotational               0.889              2.981             36.451
 Vibrational            261.370             84.078             70.304
 Vibration     1          0.593              1.986              7.145
 Vibration     2          0.595              1.980              5.116
 Vibration     3          0.596              1.974              4.515
 Vibration     4          0.597              1.971              4.275
 Vibration     5          0.600              1.961              3.828
 Vibration     6          0.607              1.940              3.249
 Vibration     7          0.619              1.899              2.632
 Vibration     8          0.620              1.896              2.597
 Vibration     9          0.625              1.882              2.456
 Vibration    10          0.631              1.862              2.291
 Vibration    11          0.650              1.801              1.909
 Vibration    12          0.652              1.796              1.884
 Vibration    13          0.662              1.764              1.734
 Vibration    14          0.690              1.680              1.437
 Vibration    15          0.707              1.632              1.301
 Vibration    16          0.711              1.621              1.274
 Vibration    17          0.717              1.604              1.232
 Vibration    18          0.718              1.599              1.221
 Vibration    19          0.728              1.573              1.162
 Vibration    20          0.781              1.430              0.898
 Vibration    21          0.792              1.403              0.856
 Vibration    22          0.799              1.384              0.829
 Vibration    23          0.804              1.373              0.812
 Vibration    24          0.822              1.329              0.753
 Vibration    25          0.839              1.289              0.703
 Vibration    26          0.841              1.284              0.698
 Vibration    27          0.867              1.224              0.629
 Vibration    28          0.882              1.189              0.593
 Vibration    29          0.911              1.128              0.533
 Vibration    30          0.915              1.119              0.525
 Vibration    31          0.925              1.098              0.506
 Vibration    32          0.933              1.082              0.491
 Vibration    33          0.939              1.070              0.482
 Vibration    34          0.944              1.059              0.472
 Vibration    35          0.959              1.031              0.449
 Vibration    36          0.966              1.017              0.438

 1\1\GINC-DS505-29\Freq\RwB97XD\def2TZVP\C32H18\MINENKY\29-Jul-2019\0\\
 #P Geom=AllCheck Guess=TCheck SCRF=Check GenChk RwB97XD/def2TZVP Freq\
 \The PBEPBE optimization and frequencies\\0,1\C,3.011103324,2.33623170
 18,5.8593239302\C,3.7512527597,3.2764091103,5.087985796\C,3.1648560391
 ,2.3193878665,7.3196651714\C,2.1865451606,1.4424379133,5.2083983794\C,
 4.6561535521,4.2137702039,5.7655014512\C,3.6195179477,3.2626396368,3.7
 150604847\C,4.9076915156,4.0783326612,7.1474148235\C,4.1519548979,3.11
 83136319,7.9350140893\C,4.3496720044,3.0357972472,9.329789706\C,5.8409

 Normal termination of Gaussian 09 at Mon Jul 29 19:24:43 2019.
