 Gaussian 09, Revision D.01,
 Gaussian 09:  AM64L-G09RevD.01 24-Apr-2013

 ----------------------------------------------------------------------
 #P wB97XD/def2tzvp opt=(tight) freq integral(Grid=ultrafine) # SCF(Max
 Cycle=380) 5d 7f GFPrint
 ----------------------------------------------------------------------

 ---------------------------------------
 The PBEPBE optimization and frequencies
 ---------------------------------------
 Symbolic Z-matrix:
 Charge =  0 Multiplicity = 1

 SCF Done:  E(RwB97XD) =  -1229.13321465     A.U. after   14 cycles
 SCF Done:  E(RwB97XD) =  -1229.13812774     A.U. after   13 cycles
 SCF Done:  E(RwB97XD) =  -1229.13845338     A.U. after   12 cycles
 SCF Done:  E(RwB97XD) =  -1229.13844917     A.U. after    9 cycles
 SCF Done:  E(RwB97XD) =  -1229.13842206     A.U. after    8 cycles
 SCF Done:  E(RwB97XD) =  -1229.13842166     A.U. after    7 cycles
 SCF Done:  E(RwB97XD) =  -1229.13842168     A.U. after    4 cycles
 Optimization completed.
    -- Stationary point found.
 Normal termination of Gaussian 09 at Sat Jul 27 19:46:58 2019.

 ---------------------------------------------------------------------
 #P Geom=AllCheck Guess=TCheck SCRF=Check GenChk RwB97XD/def2TZVP Freq
 ---------------------------------------------------------------------

 Structure from the checkpoint file:  "m1_00_188-91-0-C32H16_wB97XD.chk"
 ---------------------------------------
 The PBEPBE optimization and frequencies
 ---------------------------------------
 Charge =  0 Multiplicity = 1

                         Standard orientation:
 ---------------------------------------------------------------------
 Center     Atomic      Atomic             Coordinates (Angstroms)
 Number     Number       Type             X           Y           Z
 ---------------------------------------------------------------------
      1          6           0       -1.814286    2.136351    0.000000
      2          6           0       -1.389155    3.497809    0.000000
      3          6           0       -2.298123    4.555997    0.000000
      4          6           0       -1.853281    5.866716    0.000000
      5          6           0       -0.497742    6.147808    0.000000
      6          6           0        3.211478    1.931352    0.000000
      7          6           0        2.770087    0.630483    0.000000
      8          6           0        2.306585    2.991257    0.000000
      9          6           0        0.924847    2.700651    0.000000
     10          6           0       -0.005801    3.776201    0.000000
     11          6           0        0.442680    5.117960    0.000000
     12          6           0        1.853282    5.372455    0.000000
     13          6           0        2.739244    4.357125    0.000000
     14          6           0        0.473726    1.354325    0.000000
     15          6           0        1.408753    0.309875    0.000000
     16          6           0       -0.948540    1.089451    0.000000
     17          6           0       -1.408755   -0.309875    0.000000
     18          6           0       -3.211479   -1.931354    0.000000
     19          6           0       -2.770089   -0.630485    0.000000
     20          6           0       -2.306585   -2.991259    0.000000
     21          6           0       -1.853281   -5.372456    0.000000
     22          6           0       -2.739243   -4.357126    0.000000
     23          6           0       -0.442679   -5.117960    0.000000
     24          6           0        2.298124   -4.555995    0.000000
     25          6           0        1.853282   -5.866714    0.000000
     26          6           0        0.497744   -6.147807    0.000000
     27          6           0        1.389155   -3.497808    0.000000
     28          6           0        0.005801   -3.776201    0.000000
     29          6           0       -0.924847   -2.700651    0.000000
     30          6           0       -0.473727   -1.354325    0.000000
     31          6           0        0.948539   -1.089450    0.000000
     32          6           0        1.814285   -2.136350    0.000000
     33          1           0       -2.882376    1.968419    0.000000
     34          1           0       -3.360294    4.341701    0.000000
     35          1           0       -2.570391    6.677816    0.000000
     36          1           0       -0.155261    7.175747    0.000000
     37          1           0        4.274618    2.140504    0.000000
     38          1           0        3.510985   -0.155591    0.000000
     39          1           0        2.193062    6.401317    0.000000
     40          1           0        3.804409    4.556299    0.000000
     41          1           0       -4.274618   -2.140507    0.000000
     42          1           0       -3.510987    0.155588    0.000000
     43          1           0       -2.193060   -6.401318    0.000000
     44          1           0       -3.804409   -4.556301    0.000000
     45          1           0        3.360294   -4.341699    0.000000
     46          1           0        2.570393   -6.677814    0.000000
     47          1           0        0.155263   -7.175747    0.000000
     48          1           0        2.882375   -1.968416    0.000000
 ---------------------------------------------------------------------

 SCF Done:  E(RwB97XD) =  -1229.13842168     A.U. after    1 cycles

 The electronic state is 1-A'.
 Alpha  occ. eigenvalues --  -10.30714 -10.30713 -10.30601 -10.30596 -10.30505
 Alpha  occ. eigenvalues --  -10.30505 -10.30248 -10.30248 -10.30140 -10.30140
 Alpha  occ. eigenvalues --  -10.30096 -10.30096 -10.30082 -10.30082 -10.29940
 Alpha  occ. eigenvalues --  -10.29940 -10.29353 -10.29353 -10.29270 -10.29270
 Alpha  occ. eigenvalues --  -10.29229 -10.29229 -10.29206 -10.29206 -10.29182
 Alpha  occ. eigenvalues --  -10.29182 -10.29161 -10.29161 -10.29114 -10.29114
 Alpha  occ. eigenvalues --  -10.29082 -10.29082  -1.01414  -1.00214  -0.97318
 Alpha  occ. eigenvalues --   -0.96391  -0.94838  -0.93557  -0.91748  -0.89967
 Alpha  occ. eigenvalues --   -0.89003  -0.86995  -0.86010  -0.84980  -0.83755
 Alpha  occ. eigenvalues --   -0.83506  -0.82260  -0.79968  -0.74588  -0.74442
 Alpha  occ. eigenvalues --   -0.74054  -0.72660  -0.71913  -0.71157  -0.70992
 Alpha  occ. eigenvalues --   -0.68424  -0.65312  -0.63479  -0.63091  -0.62574
 Alpha  occ. eigenvalues --   -0.61743  -0.60801  -0.59675  -0.58985  -0.58183
 Alpha  occ. eigenvalues --   -0.57094  -0.55555  -0.54690  -0.53848  -0.53256
 Alpha  occ. eigenvalues --   -0.52619  -0.52543  -0.52366  -0.51665  -0.51024
 Alpha  occ. eigenvalues --   -0.51003  -0.50373  -0.49417  -0.49102  -0.48425
 Alpha  occ. eigenvalues --   -0.47758  -0.47548  -0.47485  -0.46533  -0.46499
 Alpha  occ. eigenvalues --   -0.45448  -0.45365  -0.44694  -0.44215  -0.42997
 Alpha  occ. eigenvalues --   -0.42376  -0.41224  -0.40673  -0.40257  -0.39338
 Alpha  occ. eigenvalues --   -0.38249  -0.37485  -0.35809  -0.34254  -0.32697
 Alpha  occ. eigenvalues --   -0.31134  -0.30702  -0.28911  -0.24294
 Alpha virt. eigenvalues --   -0.03483   0.01031   0.02268   0.02826   0.04253
 Alpha virt. eigenvalues --    0.05967   0.06599   0.09491   0.10988   0.11905
 Alpha virt. eigenvalues --    0.12388   0.12708   0.13552   0.13688   0.14123

 Mulliken charges:
               1
     1  C   -0.338959
     2  C    0.189893
     3  C   -0.208765
     4  C   -0.083852
     5  C   -0.163510
     6  C   -0.176673
     7  C   -0.192545
     8  C    0.157080
     9  C    0.043809
    10  C   -0.042165
    11  C    0.132025
    12  C   -0.188501
    13  C   -0.179276
    14  C   -0.057301
    15  C    0.114944
    16  C    0.170113
    17  C    0.114942
    18  C   -0.176672
    19  C   -0.192545
    20  C    0.157080
    21  C   -0.188501
    22  C   -0.179276
    23  C    0.132025
    24  C   -0.208765
    25  C   -0.083852
    26  C   -0.163510
    27  C    0.189893
    28  C   -0.042165
    29  C    0.043809
    30  C   -0.057301
    31  C    0.170114
    32  C   -0.338959
    33  H    0.087677
    34  H    0.108521
    35  H    0.114220
    36  H    0.108567
    37  H    0.102409
    38  H    0.090742
    39  H    0.105614
    40  H    0.105933
    41  H    0.102409
    42  H    0.090742
    43  H    0.105614
    44  H    0.105933
    45  H    0.108521
    46  H    0.114220
    47  H    0.108567
    48  H    0.087677
 Sum of Mulliken charges =   0.00000

 Dipole moment (field-independent basis, Debye):
    X=              0.0000    Y=              0.0000    Z=              0.0000  Tot=              0.0000
 Quadrupole moment (field-independent basis, Debye-Ang):
   XX=           -155.1913   YY=           -155.0504   ZZ=           -191.9356
   XY=              0.2968   XZ=              0.0000   YZ=              0.0000

  Exact polarizability: 421.100 -49.103 740.885   0.000   0.000 155.580
 Approx polarizability: 553.073 -82.870 731.220   0.000   0.000 222.335

                      1                      2                      3
                     A"                     A"                     A"
 Frequencies --      6.4749                43.2200                86.7942
 Red. masses --      5.3962                 5.6547                 4.3959
 Frc consts  --      0.0001                 0.0062                 0.0195
 IR Inten    --      0.0000                 0.4224                 0.0000

                      4                      5                      6
                     A"                     A"                     A'
 Frequencies --    106.9011               118.1385               144.9524
 Red. masses --      5.3751                 4.4094                 5.8139
 Frc consts  --      0.0362                 0.0363                 0.0720
 IR Inten    --      0.0000                 2.4595                 0.3984

                      7                      8                      9
                     A"                     A"                     A'
 Frequencies --    173.5135               196.7590               237.2033
 Red. masses --      4.5636                 4.3275                 7.2136
 Frc consts  --      0.0810                 0.0987                 0.2391
 IR Inten    --      1.7778                 0.0000                 0.0000

                     10                     11                     12
                     A"                     A"                     A"
 Frequencies --    239.2941               245.8065               268.6157
 Red. masses --      3.7208                 4.6114                 4.7194
 Frc consts  --      0.1255                 0.1642                 0.2006
 IR Inten    --      0.0000                 7.3871                 0.7780

                     13                     14                     15
                     A"                     A'                     A"
 Frequencies --    277.9605               291.5559               313.6192
 Red. masses --      4.4191                 6.8144                 3.5829
 Frc consts  --      0.2012                 0.3413                 0.2076
 IR Inten    --      0.0000                 0.0000                 0.1236

                     16                     17                     18
                     A"                     A'                     A'
 Frequencies --    381.3419               400.9246               410.8597
 Red. masses --      5.4193                 6.0805                 5.3968
 Frc consts  --      0.4643                 0.5759                 0.5368
 IR Inten    --      0.0000                 0.0000                 1.4503

                     19                     20                     21
                     A"                     A'                     A'
 Frequencies --    428.4354               445.7866               449.6436
 Red. masses --      4.2621                 6.5264                 6.8646
 Frc consts  --      0.4609                 0.7641                 0.8177
 IR Inten    --      0.0000                 2.2245                 0.0000

                     22                     23                     24
                     A"                     A'                     A"
 Frequencies --    467.0690               472.0101               511.2093
 Red. masses --      3.6395                 7.9293                 3.8850
 Frc consts  --      0.4678                 1.0408                 0.5982
 IR Inten    --      0.1043                 2.7972                 0.0000

                     25                     26                     27
                     A'                     A"                     A'
 Frequencies --    511.6334               521.1182               523.0991
 Red. masses --      5.1989                 3.5978                 5.0062
 Frc consts  --      0.8018                 0.5756                 0.8071
 IR Inten    --      0.0000                 1.8500                 2.9072

                     28                     29                     30
                     A"                     A'                     A"
 Frequencies --    532.2232               539.5060               553.7913
 Red. masses --      3.3314                 6.2821                 3.2437
 Frc consts  --      0.5560                 1.0773                 0.5861
 IR Inten    --      0.0000                 0.0000                 5.6847

                     31                     32                     33
                     A'                     A'                     A'
 Frequencies --    568.2676               588.0016               589.5521
 Red. masses --      7.0472                 6.4191                 6.1564
 Frc consts  --      1.3408                 1.3076                 1.2607
 IR Inten    --      0.0000                 0.0000                 2.0258

                     34                     35                     36
                     A"                     A"                     A'
 Frequencies --    597.8552               600.5503               635.4794
 Red. masses --      4.2873                 3.7978                 7.1010
 Frc consts  --      0.9029                 0.8070                 1.6896
 IR Inten    --      7.8995                 0.0000                12.5111

                     37                     38                     39
                     A"                     A"                     A'
 Frequencies --    651.0770               673.0644               692.0237
 Red. masses --      4.1449                 3.0968                 7.1696
 Frc consts  --      1.0352                 0.8266                 2.0230
 IR Inten    --      0.0000                 8.7709                 0.0000

                     40                     41                     42
                     A'                     A"                     A"
 Frequencies --    693.8157               716.6874               723.0073
 Red. masses --      6.4945                 3.4336                 3.0124
 Frc consts  --      1.8420                 1.0391                 0.9278
 IR Inten    --      2.5922                10.8992                 0.0000

                     43                     44                     45
                     A'                     A'                     A"
 Frequencies --    725.1066               760.6216               771.9571
 Red. masses --      6.9615                 5.5278                 2.8582
 Frc consts  --      2.1565                 1.8843                 1.0035
 IR Inten    --      0.6897                 0.0000                39.6724

                     46                     47                     48
                     A'                     A"                     A"
 Frequencies --    780.3115               784.1771               790.2603
 Red. masses --      7.0064                 1.2388                 1.3585
 Frc consts  --      2.5135                 0.4488                 0.4999
 IR Inten    --      0.0000                 0.0000                21.3079

                     49                     50                     51
                     A'                     A"                     A"
 Frequencies --    792.7188               795.7237               833.2858
 Red. masses --      5.2707                 1.5552                 1.6919
 Frc consts  --      1.9515                 0.5802                 0.6922
 IR Inten    --      0.7870                 0.0000                 0.0539

                     52                     53                     54
                     A'                     A"                     A"
 Frequencies --    838.4931               864.5362               868.3964
 Red. masses --      5.9551                 1.7460                 2.8828
 Frc consts  --      2.4668                 0.7689                 1.2809
 IR Inten    --      0.0000                56.8067                 0.0000

                     55                     56                     57
                     A"                     A'                     A"
 Frequencies --    873.2049               877.9278               889.7485
 Red. masses --      1.9577                 4.6264                 1.7199
 Frc consts  --      0.8795                 2.1009                 0.8022
 IR Inten    --      0.0000                 1.1217                 0.0000

                     58                     59                     60
                     A'                     A"                     A"
 Frequencies --    898.1702               901.9565               916.0730
 Red. masses --      5.5634                 2.0567                 3.4517
 Frc consts  --      2.6443                 0.9858                 1.7067
 IR Inten    --      0.0000                77.3388                18.3346

                     61                     62                     63
                     A"                     A"                     A"
 Frequencies --    930.1327               935.7081               944.9726
 Red. masses --      2.0531                 1.5980                 2.8921
 Frc consts  --      1.0465                 0.8244                 1.5216
 IR Inten    --      0.0000                 4.5060                 0.0000

                     64                     65                     66
                     A"                     A'                     A"
 Frequencies --    968.9908               969.5347               969.7390
 Red. masses --      1.3400                 6.7251                 1.3339
 Frc consts  --      0.7413                 3.7246                 0.7390
 IR Inten    --      0.0000                 6.0462                 0.0192

                     67                     68                     69
                     A"                     A"                     A"
 Frequencies --    990.8033               991.0243               999.7299
 Red. masses --      1.3078                 1.3099                 1.3142
 Frc consts  --      0.7564                 0.7580                 0.7739
 IR Inten    --      1.2370                 0.0000                 0.0000

                     70                     71                     72
                     A"                     A'                     A'
 Frequencies --    999.7987              1002.8601              1018.2644
 Red. masses --      1.3139                 5.0772                 5.6630
 Frc consts  --      0.7738                 3.0085                 3.4595
 IR Inten    --      0.0638                 5.6596                 0.0000

                     73                     74                     75
                     A'                     A'                     A'
 Frequencies --   1090.2266              1095.9412              1122.9823
 Red. masses --      3.3902                 3.2497                 1.9886
 Frc consts  --      2.3741                 2.2997                 1.4775
 IR Inten    --      3.3175                 0.0000                 0.0000

                     76                     77                     78
                     A'                     A'                     A'
 Frequencies --   1134.6845              1157.8303              1165.6942
 Red. masses --      1.8505                 2.2473                 1.7382
 Frc consts  --      1.4037                 1.7750                 1.3916
 IR Inten    --     10.7275                 2.9878                 0.0000

                     79                     80                     81
                     A'                     A'                     A'
 Frequencies --   1173.0481              1176.3100              1214.0469
 Red. masses --      1.4742                 1.3959                 1.2795
 Frc consts  --      1.1952                 1.1380                 1.1111
 IR Inten    --      0.0000                 2.7385                 0.0010

                     82                     83                     84
                     A'                     A'                     A'
 Frequencies --   1214.0780              1219.8443              1222.7160
 Red. masses --      1.3458                 1.6638                 1.6386
 Frc consts  --      1.1688                 1.4587                 1.4434
 IR Inten    --     20.9550                 0.3676                 0.0000

                     85                     86                     87
                     A'                     A'                     A'
 Frequencies --   1233.3235              1241.1220              1255.1593
 Red. masses --      1.9565                 2.2004                 3.1666
 Frc consts  --      1.7534                 1.9970                 2.9392
 IR Inten    --      0.4742                 0.0000                 0.0000

                     88                     89                     90
                     A'                     A'                     A'
 Frequencies --   1273.5946              1288.5677              1291.1600
 Red. masses --      1.6159                 1.8869                 1.9475
 Frc consts  --      1.5442                 1.8459                 1.9129
 IR Inten    --      2.8050                 0.0000                 4.9404

                     91                     92                     93
                     A'                     A'                     A'
 Frequencies --   1307.3432              1328.5468              1336.6404
 Red. masses --      2.2525                 3.4111                 2.4105
 Frc consts  --      2.2683                 3.5473                 2.5373
 IR Inten    --      0.0000                 6.6915                 0.0000

                     94                     95                     96
                     A'                     A'                     A'
 Frequencies --   1336.8919              1358.7053              1368.5617
 Red. masses --      3.5326                 2.7322                 3.6082
 Frc consts  --      3.7200                 2.9718                 3.9817
 IR Inten    --      8.5031                 0.0000                 8.4935

                     97                     98                     99
                     A'                     A'                     A'
 Frequencies --   1410.7366              1410.9372              1425.4486
 Red. masses --      4.1941                 8.3770                 2.0702
 Frc consts  --      4.9179                 9.8255                 2.4783
 IR Inten    --      0.0000                 3.1884                17.4571

                    100                    101                    102
                     A'                     A'                     A'
 Frequencies --   1427.2630              1434.4757              1452.3483
 Red. masses --      5.0528                 6.4877                 6.1462
 Frc consts  --      6.0644                 7.8656                 7.6384
 IR Inten    --      0.0000                 2.0140                 0.0000

                    103                    104                    105
                     A'                     A'                     A'
 Frequencies --   1470.7806              1471.6760              1483.0106
 Red. masses --      2.5302                 2.3090                 2.3274
 Frc consts  --      3.2248                 2.9465                 3.0159
 IR Inten    --      4.9800                 0.0000                 0.0000

                    106                    107                    108
                     A'                     A'                     A'
 Frequencies --   1491.0330              1507.6839              1519.5312
 Red. masses --      3.0969                 4.2810                 6.3382
 Frc consts  --      4.0565                 5.7334                 8.6226
 IR Inten    --      0.4134                43.1947                 0.0000

                    109                    110                    111
                     A'                     A'                     A'
 Frequencies --   1545.6350              1555.5628              1570.0911
 Red. masses --      4.1279                 5.1904                 4.2115
 Frc consts  --      5.8102                 7.3999                 6.1170
 IR Inten    --      3.2957                 0.0000                 0.0000

                    112                    113                    114
                     A'                     A'                     A'
 Frequencies --   1580.9300              1618.1191              1621.7454
 Red. masses --      4.1366                 4.4969                 6.0406
 Frc consts  --      6.0915                 6.9373                 9.3605
 IR Inten    --      6.3611                 0.0000                 0.2251

                    115                    116                    117
                     A'                     A'                     A'
 Frequencies --   1650.6697              1663.2394              1675.1288
 Red. masses --      6.0076                 6.7442                 6.8542
 Frc consts  --      9.6443                10.9923                11.3320
 IR Inten    --     21.2208                 0.0000                 0.0000

                    118                    119                    120
                     A'                     A'                     A'
 Frequencies --   1675.5374              1682.5453              1688.5936
 Red. masses --      6.9777                 6.6848                 7.2093
 Frc consts  --     11.5417                11.1499                12.1114
 IR Inten    --      2.7623                 0.0000                20.4174

                    121                    122                    123
                     A'                     A'                     A'
 Frequencies --   1710.7326              1714.0326              3188.4008
 Red. masses --      7.6892                 7.2922                 1.0865
 Frc consts  --     13.2585                12.6225                 6.5074
 IR Inten    --      0.0000                15.2784                 0.0000

                    124                    125                    126
                     A'                     A'                     A'
 Frequencies --   3188.4116              3189.8573              3189.8731
 Red. masses --      1.0865                 1.0864                 1.0864
 Frc consts  --      6.5075                 6.5130                 6.5131
 IR Inten    --      1.1308                 1.5047                 0.0000

                    127                    128                    129
                     A'                     A'                     A'
 Frequencies --   3195.9151              3195.9512              3197.7758
 Red. masses --      1.0895                 1.0895                 1.0912
 Frc consts  --      6.5564                 6.5568                 6.5741
 IR Inten    --     24.3374                 0.0000                17.9898

                    130                    131                    132
                     A'                     A'                     A'
 Frequencies --   3197.7998              3207.8245              3207.9025
 Red. masses --      1.0911                 1.0971                 1.0971
 Frc consts  --      6.5740                 6.6514                 6.6517
 IR Inten    --      0.0000                61.6808                 0.0000

                    133                    134                    135
                     A'                     A'                     A'
 Frequencies --   3214.5357              3214.5845              3215.9137
 Red. masses --      1.0922                 1.0926                 1.0963
 Frc consts  --      6.6498                 6.6521                 6.6802
 IR Inten    --      0.0073                30.4442                 0.0027

                    136                    137                    138
                     A'                     A'                     A'
 Frequencies --   3215.9294              3240.5210              3240.5724
 Red. masses --      1.0959                 1.0892                 1.0890
 Frc consts  --      6.6775                 6.7387                 6.7379
 IR Inten    --     40.0977                20.7524                 0.0003

 - Thermochemistry -
 -------------------
 Temperature   298.150 Kelvin.  Pressure   1.00000 Atm.
 Atom     1 has atomic number  6 and mass  12.00000

 Molecular mass:   400.12520 amu.
 Principal axes and moments of inertia in atomic units:
                           1         2         3
     Eigenvalues --  5020.41511********************
           X            0.04761   0.99887   0.00000
           Y            0.99887  -0.04761   0.00000
           Z            0.00000   0.00000   1.00000
 This molecule is an asymmetric top.
 Rotational symmetry number  1.
 Warning -- assumption of classical behavior for rotation
           may cause significant error
 Rotational temperatures (Kelvin)      0.01725     0.00425     0.00341
 Rotational constants (GHZ):           0.35948     0.08866     0.07112
 Zero-point vibrational energy     990982.5 (Joules/Mol)
                                  236.85051 (Kcal/Mol)
 Warning -- explicit consideration of  35 degrees of freedom as
           vibrations may cause significant error
 Vibrational temperatures:      9.32    62.18   124.88   153.81   169.97
          (Kelvin)            208.55   249.65   283.09   341.28   344.29
                              353.66   386.48   399.92   419.48   451.23
                              548.67   576.84   591.13   616.42   641.39
                              646.94   672.01   679.12   735.52   736.13
                              749.77   752.62   765.75   776.23   796.78
                              817.61   846.00   848.23   860.18   864.06
                              914.31   936.75   968.39   995.67   998.24
                             1031.15  1040.24  1043.27  1094.36  1110.67
                             1122.69  1128.25  1137.01  1140.54  1144.87
                             1198.91  1206.40  1243.87  1249.43  1256.35
                             1263.14  1280.15  1292.27  1297.71  1318.02
                             1338.25  1346.27  1359.60  1394.16  1394.94
                             1395.24  1425.54  1425.86  1438.39  1438.49
                             1442.89  1465.05  1568.59  1576.81  1615.72
                             1632.56  1665.86  1677.17  1687.75  1692.45
                             1746.74  1746.79  1755.08  1759.21  1774.48
                             1785.70  1805.89  1832.42  1853.96  1857.69
                             1880.97  1911.48  1923.12  1923.49  1954.87
                             1969.05  2029.73  2030.02  2050.90  2053.51
                             2063.89  2089.60  2116.12  2117.41  2133.72
                             2145.26  2169.22  2186.26  2223.82  2238.11
                             2259.01  2274.60  2328.11  2333.33  2374.94
                             2393.03  2410.13  2410.72  2420.80  2429.51
                             2461.36  2466.11  4587.39  4587.41  4589.49
                             4589.51  4598.20  4598.26  4600.88  4600.91
                             4615.34  4615.45  4624.99  4625.06  4626.98
                             4627.00  4662.38  4662.46

 Zero-point correction=                           0.377445 (Hartree/Particle)
 Thermal correction to Energy=                    0.396901
 Thermal correction to Enthalpy=                  0.397845
 Thermal correction to Gibbs Free Energy=         0.329269
 Sum of electronic and zero-point Energies=          -1228.760976
 Sum of electronic and thermal Energies=             -1228.741521
 Sum of electronic and thermal Enthalpies=           -1228.740577
 Sum of electronic and thermal Free Energies=        -1228.809153

                     E (Thermal)             CV                S
                      KCal/Mol        Cal/Mol-Kelvin    Cal/Mol-Kelvin
 Total                  249.059             86.333            144.330
 Electronic               0.000              0.000              0.000
 Translational            0.889              2.981             43.851
 Rotational               0.889              2.981             36.204
 Vibrational            247.282             80.371             64.274
 Vibration     1          0.593              1.987              8.875
 Vibration     2          0.595              1.980              5.106
 Vibration     3          0.601              1.958              3.731
 Vibration     4          0.606              1.944              3.324
 Vibration     5          0.608              1.934              3.131
 Vibration     6          0.616              1.908              2.737
 Vibration     7          0.627              1.875              2.397
 Vibration     8          0.636              1.844              2.163
 Vibration     9          0.656              1.784              1.824
 Vibration    10          0.657              1.780              1.808
 Vibration    11          0.660              1.770              1.760
 Vibration    12          0.673              1.731              1.605
 Vibration    13          0.679              1.714              1.546
 Vibration    14          0.687              1.689              1.465
 Vibration    15          0.701              1.648              1.343
 Vibration    16          0.751              1.510              1.034
 Vibration    17          0.767              1.468              0.959
 Vibration    18          0.775              1.447              0.924
 Vibration    19          0.790              1.408              0.864
 Vibration    20          0.805              1.370              0.809
 Vibration    21          0.809              1.362              0.797
 Vibration    22          0.824              1.323              0.746
 Vibration    23          0.829              1.312              0.732
 Vibration    24          0.866              1.225              0.631
 Vibration    25          0.867              1.224              0.630
 Vibration    26          0.876              1.203              0.607
 Vibration    27          0.878              1.199              0.603
 Vibration    28          0.887              1.179              0.582
 Vibration    29          0.895              1.163              0.566
 Vibration    30          0.909              1.131              0.536
 Vibration    31          0.924              1.100              0.508
 Vibration    32          0.945              1.057              0.471
 Vibration    33          0.947              1.054              0.468
 Vibration    34          0.956              1.036              0.453
 Vibration    35          0.959              1.031              0.449

 Optimization completed.
    -- Stationary point found.
 Normal termination of Gaussian 09 at Sun Jul 28 04:12:28 2019.
