 Gaussian 09, Revision D.01,
 Gaussian 09:  AM64L-G09RevD.01 24-Apr-2013

 ----------------------------------------------------------------------
 #P wB97XD/def2tzvp opt=(tight) freq integral(Grid=ultrafine) # SCF(Max
 Cycle=380) 5d 7f GFPrint
 ----------------------------------------------------------------------

 ---------------------------------------
 The PBEPBE optimization and frequencies
 ---------------------------------------
 Symbolic Z-matrix:
 Charge =  0 Multiplicity = 1

 SCF Done:  E(RwB97XD) =  -1230.31927679     A.U. after   14 cycles
 SCF Done:  E(RwB97XD) =  -1230.32710548     A.U. after   13 cycles
 SCF Done:  E(RwB97XD) =  -1230.32752388     A.U. after   12 cycles
 SCF Done:  E(RwB97XD) =  -1230.32753331     A.U. after    9 cycles
 SCF Done:  E(RwB97XD) =  -1230.32753445     A.U. after    8 cycles
 SCF Done:  E(RwB97XD) =  -1230.32753458     A.U. after    7 cycles
 SCF Done:  E(RwB97XD) =  -1230.32753460     A.U. after    5 cycles
 Optimization completed.
    -- Stationary point found.

 1\1\GINC-DS505-29\FOpt\RwB97XD\def2TZVP\C32H18\MINENKY\28-Jul-2019\0\\
 #P wB97XD/def2tzvp opt=(tight) freq integral(Grid=ultrafine) # SCF(Max
 Cycle=380) 5d 7f GFPrint\\The PBEPBE optimization and frequencies\\0,1
 \C,-4.563773123,2.8079637676,0.\C,-2.1670809738,2.8298241239,0.\C,-3.3
 784990042,3.5070173508,0.\C,-4.5562174893,1.4119490896,0.\C,-5.7834984
 059,0.6713582718,0.\C,-5.7832846987,-0.673207526,0.\C,-4.5557683819,-1
 .4134081446,0.\C,-4.5628802443,-2.8094251546,0.\C,-3.3773839657,-3.508
 1018958,0.\C,-2.1661812649,-2.8305236125,0.\C,-3.3236825617,0.71723639

 Normal termination of Gaussian 09 at Sun Jul 28 01:20:49 2019.

 ---------------------------------------------------------------------
 #P Geom=AllCheck Guess=TCheck SCRF=Check GenChk RwB97XD/def2TZVP Freq
 ---------------------------------------------------------------------

 Structure from the checkpoint file:  "m1_00_109587-16-8-C32H18_wB97XD.chk"
 ---------------------------------------
 The PBEPBE optimization and frequencies
 ---------------------------------------
 Charge =  0 Multiplicity = 1

                         Standard orientation:
 ---------------------------------------------------------------------
 Center     Atomic      Atomic             Coordinates (Angstroms)
 Number     Number       Type             X           Y           Z
 ---------------------------------------------------------------------
      1          6           0       -4.573781   -2.808694    0.000000
      2          6           0       -2.177085   -2.830173    0.000000
      3          6           0       -3.388395   -3.507559    0.000000
      4          6           0       -4.566447   -1.412678    0.000000
      5          6           0       -5.793845   -0.672282    0.000000
      6          6           0       -5.793845    0.672283    0.000000
      7          6           0       -4.566447    1.412679    0.000000
      8          6           0       -4.573781    2.808695    0.000000
      9          6           0       -3.388395    3.507560    0.000000
     10          6           0       -2.177085    2.830174    0.000000
     11          6           0       -3.334022   -0.717770    0.000000
     12          6           0       -3.334022    0.717771    0.000000
     13          6           0       -2.120074    1.441878    0.000000
     14          6           0       -2.120074   -1.441877    0.000000
     15          6           0       -0.851668   -0.704611    0.000000
     16          6           0       -0.851668    0.704612    0.000000
     17          6           0        0.371763    1.360433    0.000000
     18          6           0        0.371763   -1.360433    0.000000
     19          6           0        1.596707   -0.704280    0.000000
     20          6           0        1.596707    0.704280    0.000000
     21          6           0        2.865218   -1.438622    0.000000
     22          6           0        4.081083   -0.733591    0.000000
     23          6           0        5.279482   -1.463901    0.000000
     24          6           0        5.291357   -2.837811    0.000000
     25          6           0        4.087509   -3.535341    0.000000
     26          6           0        2.901832   -2.841372    0.000000
     27          6           0        4.081084    0.733589    0.000000
     28          6           0        2.865219    1.438622    0.000000
     29          6           0        2.901834    2.841371    0.000000
     30          6           0        4.087511    3.535340    0.000000
     31          6           0        5.291359    2.837808    0.000000
     32          6           0        5.279483    1.463899    0.000000
     33          1           0       -5.522050   -3.332608    0.000000
     34          1           0       -1.269585   -3.416165    0.000000
     35          1           0       -3.394759   -4.590065    0.000000
     36          1           0       -6.725795   -1.224955    0.000000
     37          1           0       -6.725795    1.224956    0.000000
     38          1           0       -5.522050    3.332609    0.000000
     39          1           0       -3.394759    4.590066    0.000000
     40          1           0       -1.269585    3.416166    0.000000
     41          1           0        0.369018    2.436951    0.000000
     42          1           0        0.369017   -2.436951    0.000000
     43          1           0        6.228161   -0.948458    0.000000
     44          1           0        6.233686   -3.370405    0.000000
     45          1           0        4.080716   -4.617735    0.000000
     46          1           0        1.982777   -3.408475    0.000000
     47          1           0        1.982779    3.408476    0.000000
     48          1           0        4.080719    4.617734    0.000000
     49          1           0        6.233688    3.370402    0.000000
     50          1           0        6.228162    0.948455    0.000000
 ---------------------------------------------------------------------

 SCF Done:  E(RwB97XD) =  -1230.32753460     A.U. after    2 cycles

 The electronic state is 1-A'.
 Alpha  occ. eigenvalues --  -10.30550 -10.30549 -10.30547 -10.30535 -10.30498
 Alpha  occ. eigenvalues --  -10.30477 -10.30469 -10.30454 -10.30420 -10.30406
 Alpha  occ. eigenvalues --  -10.30297 -10.30257 -10.30116 -10.30115 -10.29229
 Alpha  occ. eigenvalues --  -10.29153 -10.29152 -10.29144 -10.29141 -10.29140
 Alpha  occ. eigenvalues --  -10.29097 -10.29096 -10.29094 -10.29092 -10.29041
 Alpha  occ. eigenvalues --  -10.29041 -10.29032 -10.29029 -10.29023 -10.29023
 Alpha  occ. eigenvalues --  -10.28988 -10.28988  -1.00902  -0.99706  -0.96690
 Alpha  occ. eigenvalues --   -0.96341  -0.96110  -0.92686  -0.90519  -0.89148
 Alpha  occ. eigenvalues --   -0.88862  -0.87188  -0.86912  -0.84102  -0.83476
 Alpha  occ. eigenvalues --   -0.83073  -0.81625  -0.81303  -0.75528  -0.73492
 Alpha  occ. eigenvalues --   -0.73396  -0.72892  -0.72722  -0.70658  -0.69122
 Alpha  occ. eigenvalues --   -0.67748  -0.67536  -0.64671  -0.64120  -0.62775
 Alpha  occ. eigenvalues --   -0.62176  -0.60248  -0.58876  -0.58790  -0.57181
 Alpha  occ. eigenvalues --   -0.56957  -0.56459  -0.55850  -0.54397  -0.53038
 Alpha  occ. eigenvalues --   -0.52740  -0.52494  -0.52071  -0.51494  -0.51432
 Alpha  occ. eigenvalues --   -0.51160  -0.50849  -0.50606  -0.50597  -0.49648
 Alpha  occ. eigenvalues --   -0.48105  -0.47608  -0.46760  -0.46393  -0.46063
 Alpha  occ. eigenvalues --   -0.45560  -0.45481  -0.45229  -0.45033  -0.44497
 Alpha  occ. eigenvalues --   -0.41944  -0.41736  -0.41547  -0.40015  -0.39915
 Alpha  occ. eigenvalues --   -0.38957  -0.38149  -0.37445  -0.35543  -0.35430
 Alpha  occ. eigenvalues --   -0.32162  -0.30679  -0.30635  -0.28263  -0.27173
 Alpha virt. eigenvalues --   -0.00500   0.00006   0.02079   0.02549   0.03075
 Alpha virt. eigenvalues --    0.06856   0.07216   0.09721   0.10308   0.10864
 Alpha virt. eigenvalues --    0.11324   0.12325   0.12582   0.13157   0.13744

 Mulliken charges:
               1
     1  C   -0.177390
     2  C   -0.185041
     3  C   -0.093699
     4  C    0.164788
     5  C   -0.183613
     6  C   -0.183613
     7  C    0.164788
     8  C   -0.177390
     9  C   -0.093699
    10  C   -0.185041
    11  C   -0.076894
    12  C   -0.076894
    13  C   -0.013689
    14  C   -0.013689
    15  C    0.245263
    16  C    0.245263
    17  C   -0.295505
    18  C   -0.295504
    19  C    0.217924
    20  C    0.217924
    21  C   -0.023732
    22  C    0.086433
    23  C   -0.199309
    24  C   -0.099043
    25  C   -0.113720
    26  C   -0.190471
    27  C    0.086433
    28  C   -0.023732
    29  C   -0.190471
    30  C   -0.113720
    31  C   -0.099043
    32  C   -0.199309
    33  H    0.107410
    34  H    0.089911
    35  H    0.111820
    36  H    0.104973
    37  H    0.104973
    38  H    0.107410
    39  H    0.111821
    40  H    0.089911
    41  H    0.107101
    42  H    0.107101
    43  H    0.094591
    44  H    0.114931
    45  H    0.114290
    46  H    0.092670
    47  H    0.092670
    48  H    0.114290
    49  H    0.114931
    50  H    0.094591
 Sum of Mulliken charges =   0.00000

 Dipole moment (field-independent basis, Debye):
    X=              0.0702    Y=              0.0000    Z=              0.0000  Tot=              0.0702
 Quadrupole moment (field-independent basis, Debye-Ang):
   XX=           -155.3308   YY=           -156.2773   ZZ=           -194.2215
   XY=              0.0000   XZ=              0.0000   YZ=              0.0000

  Exact polarizability: 572.748   0.000 472.050   0.000   0.000 159.295
 Approx polarizability: 559.157   0.000 567.810   0.000   0.000 225.432

                      1                      2                      3
                     A"                     A"                     A"
 Frequencies --     14.4762                24.4042                47.8637
 Red. masses --      5.4499                 4.8076                 4.1272
 Frc consts  --      0.0007                 0.0017                 0.0056
 IR Inten    --      0.0000                 0.0400                 0.0023

                      4                      5                      6
                     A"                     A"                     A'
 Frequencies --     73.5982                78.6874                96.4459
 Red. masses --      3.7117                 4.8862                 5.6170
 Frc consts  --      0.0118                 0.0178                 0.0308
 IR Inten    --      0.0000                 1.9863                 0.0481

                      7                      8                      9
                     A"                     A"                     A"
 Frequencies --    134.9230               140.2293               170.3739
 Red. masses --      3.9566                 5.5565                 3.5360
 Frc consts  --      0.0424                 0.0644                 0.0605
 IR Inten    --      0.0000                 0.0393                 0.0000

                     10                     11                     12
                     A'                     A"                     A"
 Frequencies --    199.3822               219.8199               231.3462
 Red. masses --      6.4847                 3.4026                 4.6093
 Frc consts  --      0.1519                 0.0969                 0.1453
 IR Inten    --      0.0035                 0.0474                 6.5270

                     13                     14                     15
                     A'                     A"                     A'
 Frequencies --    231.6078               277.9200               290.2510
 Red. masses --      6.3449                 4.1927                 5.1636
 Frc consts  --      0.2005                 0.1908                 0.2563
 IR Inten    --      0.0133                 0.0000                 0.3506

                     16                     17                     18
                     A"                     A"                     A'
 Frequencies --    306.8968               382.5843               383.9479
 Red. masses --      3.9753                 5.3699                 4.9601
 Frc consts  --      0.2206                 0.4631                 0.4308
 IR Inten    --      0.0000                 1.7111                 0.8958

                     19                     20                     21
                     A'                     A"                     A'
 Frequencies --    416.2394               421.0122               427.3547
 Red. masses --      6.6813                 2.6353                 7.6415
 Frc consts  --      0.6820                 0.2752                 0.8223
 IR Inten    --      0.8557                 0.0444                 0.0001

                     22                     23                     24
                     A"                     A"                     A'
 Frequencies --    442.2611               443.4692               445.2563
 Red. masses --      3.7109                 3.3749                 6.4010
 Frc consts  --      0.4277                 0.3911                 0.7477
 IR Inten    --      0.0000                 3.6608                 0.4123

                     25                     26                     27
                     A'                     A"                     A"
 Frequencies --    448.1700               481.4029               505.3853
 Red. masses --      7.7599                 3.3626                 3.4309
 Frc consts  --      0.9183                 0.4591                 0.5163
 IR Inten    --      0.0077                 0.0000                 1.2182

                     28                     29                     30
                     A'                     A'                     A'
 Frequencies --    519.6381               541.1047               548.4115
 Red. masses --      5.0121                 7.8010                 5.0046
 Frc consts  --      0.7974                 1.3457                 0.8868
 IR Inten    --      1.6043                14.3350                 0.0630

                     31                     32                     33
                     A"                     A'                     A"
 Frequencies --    557.9563               572.9612               575.0940
 Red. masses --      3.3093                 7.0434                 3.2139
 Frc consts  --      0.6070                 1.3623                 0.6263
 IR Inten    --      0.7827                 2.1975                 0.0000

                     34                     35                     36
                     A"                     A"                     A'
 Frequencies --    584.9246               608.2309               625.1232
 Red. masses --      3.1535                 3.8336                 7.2442
 Frc consts  --      0.6357                 0.8356                 1.6679
 IR Inten    --      0.0000                 5.5408                 0.0161

                     37                     38                     39
                     A"                     A'                     A'
 Frequencies --    636.2212               637.9807               666.8034
 Red. masses --      4.5244                 6.6532                 5.3870
 Frc consts  --      1.0790                 1.5955                 1.4112
 IR Inten    --      0.0000                 3.4464                 0.1235

                     40                     41                     42
                     A'                     A'                     A"
 Frequencies --    669.3682               703.4878               717.6264
 Red. masses --      6.8695                 6.8251                 2.5753
 Frc consts  --      1.8134                 1.9901                 0.7814
 IR Inten    --      0.5996                 0.0826                 0.0000

                     43                     44                     45
                     A'                     A"                     A'
 Frequencies --    735.2913               742.8085               744.7671
 Red. masses --      5.9695                 2.2466                 5.9342
 Frc consts  --      1.9016                 0.7304                 1.9393
 IR Inten    --      0.6883                71.2681                 0.5306

                     46                     47                     48
                     A"                     A"                     A"
 Frequencies --    749.3692               758.3093               781.9560
 Red. masses --      1.7479                 1.8590                 1.6611
 Frc consts  --      0.5783                 0.6298                 0.5984
 IR Inten    --      0.0221                 0.0000               104.1766

                     49                     50                     51
                     A"                     A"                     A'
 Frequencies --    786.6220               787.2136               794.6010
 Red. masses --      1.7386                 1.6907                 6.1711
 Frc consts  --      0.6338                 0.6173                 2.2957
 IR Inten    --      0.0000                 0.0576                 0.0889

                     52                     53                     54
                     A"                     A"                     A'
 Frequencies --    805.6768               810.5508               817.5482
 Red. masses --      1.4197                 2.5465                 5.5711
 Frc consts  --      0.5430                 0.9857                 2.1939
 IR Inten    --      0.0000                 0.0000                 0.3913

                     55                     56                     57
                     A"                     A'                     A"
 Frequencies --    857.8500               867.8233               869.2511
 Red. masses --      2.0408                 6.0642                 1.7571
 Frc consts  --      0.8849                 2.6909                 0.7822
 IR Inten    --     36.7007                 1.7765                21.7554

                     58                     59                     60
                     A"                     A"                     A"
 Frequencies --    875.0564               888.7410               894.7379
 Red. masses --      1.8418                 1.4697                 5.2114
 Frc consts  --      0.8309                 0.6840                 2.4581
 IR Inten    --      0.0000                26.3329                 0.0000

                     61                     62                     63
                     A"                     A'                     A"
 Frequencies --    915.4871               920.2325               927.8089
 Red. masses --      2.1001                 5.8642                 2.8234
 Frc consts  --      1.0371                 2.9258                 1.4320
 IR Inten    --      0.0000                 0.4605                 0.0000

                     64                     65                     66
                     A"                     A"                     A"
 Frequencies --    928.0796               954.3966               967.7317
 Red. masses --      1.4583                 1.3745                 1.3486
 Frc consts  --      0.7401                 0.7377                 0.7441
 IR Inten    --      3.2026                 0.0000                 0.4400

                     67                     68                     69
                     A"                     A"                     A"
 Frequencies --    983.9398               985.3174               987.6309
 Red. masses --      1.3015                 1.3018                 1.2982
 Frc consts  --      0.7424                 0.7446                 0.7460
 IR Inten    --      0.0000                 0.8925                 0.0000

                     70                     71                     72
                     A"                     A'                     A"
 Frequencies --    993.0274               996.5649              1000.3720
 Red. masses --      1.2718                 6.2339                 1.3147
 Frc consts  --      0.7389                 3.6477                 0.7752
 IR Inten    --      0.0122                 2.1802                 0.0000

                     73                     74                     75
                     A'                     A'                     A'
 Frequencies --   1031.3192              1033.3223              1063.1834
 Red. masses --      7.3759                 7.2127                 5.1160
 Frc consts  --      4.6222                 4.5375                 3.4072
 IR Inten    --      1.1318                 2.9142                 1.1402

                     76                     77                     78
                     A'                     A'                     A'
 Frequencies --   1090.6062              1099.1610              1124.0561
 Red. masses --      1.8533                 2.0531                 2.7883
 Frc consts  --      1.2987                 1.4614                 2.0757
 IR Inten    --      6.6764                 5.7578                 0.5485

                     79                     80                     81
                     A'                     A'                     A'
 Frequencies --   1126.2628              1128.9445              1148.5255
 Red. masses --      2.7740                 1.9557                 1.6864
 Frc consts  --      2.0731                 1.4686                 1.3107
 IR Inten    --      1.1714                 1.0562                 8.4185

                     82                     83                     84
                     A'                     A'                     A'
 Frequencies --   1152.0332              1173.4698              1179.6360
 Red. masses --      2.2868                 1.6188                 1.3199
 Frc consts  --      1.7881                 1.3134                 1.0821
 IR Inten    --      0.5276                 1.4040                 0.4608

                     85                     86                     87
                     A'                     A'                     A'
 Frequencies --   1203.1199              1211.2984              1218.1672
 Red. masses --      1.1187                 1.2046                 1.2629
 Frc consts  --      0.9541                 1.0414                 1.1042
 IR Inten    --      0.8242                 0.7105                 0.5138

                     88                     89                     90
                     A'                     A'                     A'
 Frequencies --   1221.8343              1243.4062              1251.5866
 Red. masses --      1.2843                 2.7193                 2.2222
 Frc consts  --      1.1296                 2.4771                 2.0509
 IR Inten    --      2.4436                 2.0243                 0.8668

                     91                     92                     93
                     A'                     A'                     A'
 Frequencies --   1259.6847              1274.2391              1280.8769
 Red. masses --      2.5947                 1.9301                 1.5674
 Frc consts  --      2.4258                 1.8464                 1.5151
 IR Inten    --      1.1938                 0.5709                 0.0826

                     94                     95                     96
                     A'                     A'                     A'
 Frequencies --   1306.2248              1314.2192              1337.8137
 Red. masses --      3.2951                 2.5333                 3.0812
 Frc consts  --      3.3125                 2.5780                 3.2491
 IR Inten    --      0.3353                 0.0407                 5.4907

                     97                     98                     99
                     A'                     A'                     A'
 Frequencies --   1338.3617              1348.3288              1348.4920
 Red. masses --      2.3133                 3.0531                 1.8575
 Frc consts  --      2.4414                 3.2702                 1.9901
 IR Inten    --      0.1091                10.8566                 0.4060

                    100                    101                    102
                     A'                     A'                     A'
 Frequencies --   1364.4071              1367.3733              1378.3901
 Red. masses --      2.1408                 4.3295                 3.2783
 Frc consts  --      2.3480                 4.7693                 3.6698
 IR Inten    --      1.0775                 4.8130                 0.9888

                    103                    104                    105
                     A'                     A'                     A'
 Frequencies --   1381.7907              1395.7780              1432.0540
 Red. masses --      5.8330                 4.9194                 4.5324
 Frc consts  --      6.5619                 5.6467                 5.4764
 IR Inten    --      0.1284                 0.4337                18.9178

                    106                    107                    108
                     A'                     A'                     A'
 Frequencies --   1460.2350              1470.5843              1485.3907
 Red. masses --      3.9654                 1.8653                 2.4224
 Frc consts  --      4.9818                 2.3767                 3.1490
 IR Inten    --     13.4435                 0.7129                61.1498

                    109                    110                    111
                     A'                     A'                     A'
 Frequencies --   1495.1578              1496.0973              1517.3188
 Red. masses --      2.7063                 2.5461                 4.0350
 Frc consts  --      3.5646                 3.3578                 5.4733
 IR Inten    --      5.4257                 1.8906                 2.0630

                    112                    113                    114
                     A'                     A'                     A'
 Frequencies --   1520.2397              1552.4813              1554.6003
 Red. masses --      2.7774                 3.2741                 2.9648
 Frc consts  --      3.7819                 4.6494                 4.2217
 IR Inten    --      1.8709                19.1976                18.8492

                    115                    116                    117
                     A'                     A'                     A'
 Frequencies --   1557.6743              1582.5674              1611.9787
 Red. masses --      3.2180                 4.3463                 4.6403
 Frc consts  --      4.6004                 6.4135                 7.1042
 IR Inten    --      0.0420                12.7357                 3.5206

                    118                    119                    120
                     A'                     A'                     A'
 Frequencies --   1645.8399              1657.9717              1662.1735
 Red. masses --      6.0036                 7.1460                 6.5994
 Frc consts  --      9.5815                11.5736                10.7425
 IR Inten    --      0.4030                 0.0220                 4.3887

                    121                    122                    123
                     A'                     A'                     A'
 Frequencies --   1669.7664              1679.1143              1687.3464
 Red. masses --      6.0401                 6.5384                 5.9825
 Frc consts  --      9.9221                10.8613                10.0356
 IR Inten    --      0.0142                 7.6308                 0.0207

                    124                    125                    126
                     A'                     A'                     A'
 Frequencies --   1687.3871              1697.2111              1711.8789
 Red. masses --      5.6302                 6.5817                 7.1495
 Frc consts  --      9.4451                11.1701                12.3445
 IR Inten    --      0.4774                 0.0798                 0.1620

                    127                    128                    129
                     A'                     A'                     A'
 Frequencies --   3189.0040              3193.5035              3193.5635
 Red. masses --      1.0864                 1.0873                 1.0871
 Frc consts  --      6.5097                 6.5332                 6.5321
 IR Inten    --      0.8766                 2.1264                 0.3368

                    130                    131                    132
                     A'                     A'                     A'
 Frequencies --   3198.4367              3199.2784              3208.4541
 Red. masses --      1.0863                 1.0868                 1.0969
 Frc consts  --      6.5476                 6.5538                 6.6527
 IR Inten    --      0.3860                 0.4350                 9.2603

                    133                    134                    135
                     A'                     A'                     A'
 Frequencies --   3210.0680              3210.4825              3212.5952
 Red. masses --      1.0931                 1.0936                 1.0915
 Frc consts  --      6.6364                 6.6413                 6.6371
 IR Inten    --     24.5172                36.7163                13.5023

                    136                    137                    138
                     A'                     A'                     A'
 Frequencies --   3214.9008              3227.4644              3228.0106
 Red. masses --      1.0928                 1.0943                 1.0945
 Frc consts  --      6.6546                 6.7162                 6.7198
 IR Inten    --     16.8258                17.2433                 0.4733

                    139                    140                    141
                     A'                     A'                     A'
 Frequencies --   3229.4217              3235.3369              3235.7206
 Red. masses --      1.0950                 1.0926                 1.0938
 Frc consts  --      6.7283                 6.7384                 6.7476
 IR Inten    --      6.4606                 8.0335                 5.2511

                    142                    143                    144
                     A'                     A'                     A'
 Frequencies --   3248.1875              3276.2873              3278.2882
 Red. masses --      1.0900                 1.0852                 1.0857
 Frc consts  --      6.7755                 6.8633                 6.8748
 IR Inten    --     22.0525                14.0235                 0.0109

 - Thermochemistry -
 -------------------
 Temperature   298.150 Kelvin.  Pressure   1.00000 Atm.
 Atom     1 has atomic number  6 and mass  12.00000

 Molecular mass:   402.14085 amu.
 Principal axes and moments of inertia in atomic units:
                           1         2         3
     Eigenvalues --  6647.83827********************
           X            1.00000   0.00000   0.00000
           Y            0.00000   1.00000   0.00000
           Z            0.00000   0.00000   1.00000
 This molecule is an asymmetric top.
 Rotational symmetry number  1.
 Warning -- assumption of classical behavior for rotation
           may cause significant error
 Rotational temperatures (Kelvin)      0.01303     0.00435     0.00326
 Rotational constants (GHZ):           0.27148     0.09070     0.06798
 Zero-point vibrational energy    1045829.2 (Joules/Mol)
                                  249.95918 (Kcal/Mol)
 Warning -- explicit consideration of  35 degrees of freedom as
           vibrations may cause significant error
 Vibrational temperatures:     20.83    35.11    68.87   105.89   113.21
          (Kelvin)            138.76   194.12   201.76   245.13   286.87
                              316.27   332.86   333.23   399.86   417.61
                              441.56   550.45   552.41   598.87   605.74
                              614.87   636.31   638.05   640.62   644.82
                              692.63   727.14   747.64   778.53   789.04
                              802.77   824.36   827.43   841.57   875.11
                              899.41   915.38   917.91   959.38   963.07
                             1012.16  1032.50  1057.92  1068.73  1071.55
                             1078.17  1091.04  1125.06  1131.77  1132.62
                             1143.25  1159.19  1166.20  1176.27  1234.25
                             1248.60  1250.66  1259.01  1278.70  1287.33
                             1317.18  1324.01  1334.91  1335.30  1373.16
                             1392.35  1415.67  1417.65  1420.98  1428.74
                             1433.83  1439.31  1483.84  1486.72  1529.68
                             1569.14  1581.45  1617.26  1620.44  1624.30
                             1652.47  1657.52  1688.36  1697.23  1731.02
                             1742.79  1752.67  1757.94  1788.98  1800.75
                             1812.40  1833.34  1842.89  1879.36  1890.87
                             1924.81  1925.60  1939.94  1940.18  1963.08
                             1967.34  1983.19  1988.09  2008.21  2060.40
                             2100.95  2115.84  2137.14  2151.20  2152.55
                             2183.08  2187.28  2233.67  2236.72  2241.14
                             2276.96  2319.27  2367.99  2385.45  2391.49
                             2402.42  2415.87  2427.71  2427.77  2441.91
                             2463.01  4588.26  4594.73  4594.82  4601.83
                             4603.04  4616.24  4618.57  4619.16  4622.20
                             4625.52  4643.60  4644.38  4646.41  4654.92
                             4655.47  4673.41  4713.84  4716.72

 Zero-point correction=                           0.398335 (Hartree/Particle)
 Thermal correction to Energy=                    0.419364
 Thermal correction to Enthalpy=                  0.420308
 Thermal correction to Gibbs Free Energy=         0.347601
 Sum of electronic and zero-point Energies=          -1229.929199
 Sum of electronic and thermal Energies=             -1229.908171
 Sum of electronic and thermal Enthalpies=           -1229.907226
 Sum of electronic and thermal Free Energies=        -1229.979934

                     E (Thermal)             CV                S
                      KCal/Mol        Cal/Mol-Kelvin    Cal/Mol-Kelvin
 Total                  263.155             90.379            153.026
 Electronic               0.000              0.000              0.000
 Translational            0.889              2.981             43.866
 Rotational               0.889              2.981             36.505
 Vibrational            261.377             84.418             72.654
 Vibration     1          0.593              1.986              7.276
 Vibration     2          0.593              1.985              6.239
 Vibration     3          0.595              1.978              4.904
 Vibration     4          0.599              1.966              4.055
 Vibration     5          0.600              1.964              3.923
 Vibration     6          0.603              1.952              3.525
 Vibration     7          0.613              1.918              2.875
 Vibration     8          0.615              1.913              2.801
 Vibration     9          0.625              1.879              2.431
 Vibration    10          0.638              1.841              2.139
 Vibration    11          0.647              1.811              1.961
 Vibration    12          0.653              1.793              1.868
 Vibration    13          0.653              1.793              1.866
 Vibration    14          0.679              1.714              1.546
 Vibration    15          0.686              1.692              1.473
 Vibration    16          0.697              1.661              1.379
 Vibration    17          0.752              1.507              1.029
 Vibration    18          0.753              1.504              1.024
 Vibration    19          0.779              1.435              0.905
 Vibration    20          0.784              1.425              0.889
 Vibration    21          0.789              1.411              0.867
 Vibration    22          0.802              1.378              0.820
 Vibration    23          0.803              1.375              0.816
 Vibration    24          0.805              1.371              0.810
 Vibration    25          0.807              1.365              0.801
 Vibration    26          0.838              1.291              0.706
 Vibration    27          0.861              1.238              0.645
 Vibration    28          0.875              1.207              0.611
 Vibration    29          0.896              1.159              0.563
 Vibration    30          0.904              1.143              0.547
 Vibration    31          0.914              1.122              0.528
 Vibration    32          0.929              1.090              0.499
 Vibration    33          0.931              1.085              0.495
 Vibration    34          0.942              1.064              0.476
 Vibration    35          0.967              1.014              0.436

 Optimization completed.
    -- Stationary point found.

 1\1\GINC-DS505-29\Freq\RwB97XD\def2TZVP\C32H18\MINENKY\28-Jul-2019\0\\
 #P Geom=AllCheck Guess=TCheck SCRF=Check GenChk RwB97XD/def2TZVP Freq\
 \The PBEPBE optimization and frequencies\\0,1\C,-4.563773123,2.8079637
 676,0.\C,-2.1670809738,2.8298241239,0.\C,-3.3784990042,3.5070173508,0.
 \C,-4.5562174893,1.4119490896,0.\C,-5.7834984059,0.6713582718,0.\C,-5.
 7832846987,-0.673207526,0.\C,-4.5557683819,-1.4134081446,0.\C,-4.56288
 02443,-2.8094251546,0.\C,-3.3773839657,-3.5081018958,0.\C,-2.166181264
 9,-2.8305236125,0.\C,-3.3236825617,0.717236394,0.\C,-3.3234543806,-0.7

 Normal termination of Gaussian 09 at Sun Jul 28 22:29:04 2019.
