 Gaussian 09, Revision D.01,
 Gaussian 09:  AM64L-G09RevD.01 24-Apr-2013

 ----------------------------------------------------------------------
 #P wB97XD/def2tzvp opt=(tight) freq integral(Grid=ultrafine) # SCF(Max
 Cycle=380) 5d 7f GFPrint
 ----------------------------------------------------------------------

 ---------------------------------------
 The PBEPBE optimization and frequencies
 ---------------------------------------
 Symbolic Z-matrix:
 Charge =  0 Multiplicity = 1

 SCF Done:  E(RwB97XD) =  -464.526556393     A.U. after   17 cycles
 SCF Done:  E(RwB97XD) =  -464.526725191     A.U. after    9 cycles
 SCF Done:  E(RwB97XD) =  -464.526734080     A.U. after    8 cycles
 SCF Done:  E(RwB97XD) =  -464.526735182     A.U. after    7 cycles
 SCF Done:  E(RwB97XD) =  -464.526735192     A.U. after    4 cycles
 Optimization completed.
    -- Stationary point found.
 Normal termination of Gaussian 09 at Fri Jul  9 19:38:59 2021.

 ---------------------------------------------------------------------
 #P Geom=AllCheck Guess=TCheck SCRF=Check GenChk RwB97XD/def2TZVP Freq
 ---------------------------------------------------------------------

 Structure from the checkpoint file:  "m1_00_582-16-1-C12H12_wB97XD.chk"
 ---------------------------------------
 The PBEPBE optimization and frequencies
 ---------------------------------------
 Charge =  0 Multiplicity = 1

                         Standard orientation:
 ---------------------------------------------------------------------
 Center     Atomic      Atomic             Coordinates (Angstroms)
 Number     Number       Type             X           Y           Z
 ---------------------------------------------------------------------
      1          6           0        2.431161   -0.423718    0.000000
      2          6           0        3.746633   -1.148799    0.000000
      3          6           0        1.238344   -1.092431    0.000000
      4          6           0        2.415112    0.992738    0.000000
      5          6           0        0.000000   -0.406978    0.000000
      6          6           0        1.241054    1.685163    0.000000
      7          6           0        0.000000    1.006771    0.000000
      8          6           0       -1.238344   -1.092431    0.000000
      9          6           0       -1.241054    1.685163    0.000000
     10          6           0       -2.431161   -0.423718    0.000000
     11          6           0       -2.415112    0.992738    0.000000
     12          6           0       -3.746633   -1.148799    0.000000
     13          1           0        4.337938   -0.883833   -0.879527
     14          1           0        4.337939   -0.883833    0.879526
     15          1           0        3.605648   -2.229418    0.000000
     16          1           0        1.227986   -2.177390    0.000000
     17          1           0        3.357875    1.528232    0.000000
     18          1           0        1.245406    2.769150    0.000000
     19          1           0       -1.227986   -2.177390    0.000000
     20          1           0       -1.245406    2.769150    0.000000
     21          1           0       -3.357875    1.528232    0.000000
     22          1           0       -4.337936   -0.883837    0.879530
     23          1           0       -4.337941   -0.883829   -0.879523
     24          1           0       -3.605648   -2.229418   -0.000004
 ---------------------------------------------------------------------

 SCF Done:  E(RwB97XD) =  -464.526735192     A.U. after    1 cycles

 The electronic state is 1-A.
 Alpha  occ. eigenvalues --  -10.29408 -10.29408 -10.29201 -10.28959 -10.28535
 Alpha  occ. eigenvalues --  -10.28532 -10.28179 -10.28179 -10.28004 -10.28003
 Alpha  occ. eigenvalues --  -10.27884 -10.27884  -0.97946  -0.93430  -0.88249
 Alpha  occ. eigenvalues --   -0.86150  -0.83996  -0.78550  -0.77935  -0.70137
 Alpha  occ. eigenvalues --   -0.69263  -0.68376  -0.60369  -0.58026  -0.57613
 Alpha  occ. eigenvalues --   -0.53371  -0.52214  -0.51932  -0.51347  -0.50710
 Alpha  occ. eigenvalues --   -0.49539  -0.47197  -0.46855  -0.46756  -0.46610
 Alpha  occ. eigenvalues --   -0.43800  -0.41392  -0.40585  -0.39933  -0.36524
 Alpha  occ. eigenvalues --   -0.30703  -0.28639
 Alpha virt. eigenvalues --    0.02696   0.05008   0.09257   0.12141   0.12432
 Alpha virt. eigenvalues --    0.13754   0.14685   0.15333   0.16201   0.17264
 Alpha virt. eigenvalues --    0.17843   0.19445   0.20174   0.20794   0.21476

 Mulliken charges:
               1
     1  C    0.212723
     2  C   -0.366871
     3  C   -0.337274
     4  C   -0.199118
     5  C    0.218546
     6  C   -0.162199
     7  C    0.100549
     8  C   -0.337274
     9  C   -0.162199
    10  C    0.212723
    11  C   -0.199118
    12  C   -0.366871
    13  H    0.127585
    14  H    0.127585
    15  H    0.119270
    16  H    0.101247
    17  H    0.110828
    18  H    0.106676
    19  H    0.101247
    20  H    0.106676
    21  H    0.110828
    22  H    0.127585
    23  H    0.127585
    24  H    0.119270
 Sum of Mulliken charges =   0.00000

 Dipole moment (field-independent basis, Debye):
    X=              0.0000    Y=             -0.2035    Z=              0.0000  Tot=              0.2035
 Quadrupole moment (field-independent basis, Debye-Ang):
   XX=            -62.0438   YY=            -64.8731   ZZ=            -76.0072
   XY=              0.0000   XZ=              0.0000   YZ=              0.0000

  Exact polarizability: 210.471   0.000 138.534   0.000   0.000  77.647
 Approx polarizability: 212.470   0.000 168.749   0.000   0.000  98.847

                      1                      2                      3
                      A                      A                      A
 Frequencies --     89.2304               101.8626               121.7470
 Red. masses --      1.5026                 1.0573                 1.7377
 Frc consts  --      0.0070                 0.0065                 0.0152
 IR Inten    --      1.7242                 0.0000                 0.7669

                      4                      5                      6
                      A                      A                      A
 Frequencies --    131.7958               221.5318               281.3236
 Red. masses --      3.0281                 2.9904                 3.6330
 Frc consts  --      0.0310                 0.0865                 0.1694
 IR Inten    --      0.0000                 0.7249                 0.5707

                      7                      8                      9
                      A                      A                      A
 Frequencies --    287.7849               334.4483               421.5938
 Red. masses --      3.3218                 2.7378                 2.9949
 Frc consts  --      0.1621                 0.1804                 0.3136
 IR Inten    --      0.0000                 1.3036                 0.0000

                     10                     11                     12
                      A                      A                      A
 Frequencies --    431.2890               455.6701               478.1887
 Red. masses --      4.8499                 3.2541                 5.2474
 Frc consts  --      0.5315                 0.3981                 0.7070
 IR Inten    --      0.7666                 0.3817                 0.0597

                     13                     14                     15
                      A                      A                      A
 Frequencies --    493.1748               563.7349               654.2598
 Red. masses --      2.4501                 3.4856                 6.9313
 Frc consts  --      0.3511                 0.6526                 1.7481
 IR Inten    --     20.8158                 4.5346                 2.3487

                     16                     17                     18
                      A                      A                      A
 Frequencies --    656.2707               696.9565               789.5945
 Red. masses --      2.7003                 4.9670                 4.7372
 Frc consts  --      0.6852                 1.4215                 1.7401
 IR Inten    --      0.0000                 0.7056                 0.0147

                     19                     20                     21
                      A                      A                      A
 Frequencies --    798.4126               802.5259               807.0003
 Red. masses --      2.5663                 4.9785                 1.3073
 Frc consts  --      0.9639                 1.8892                 0.5016
 IR Inten    --      2.1349                 0.0681                 0.0000

                     22                     23                     24
                      A                      A                      A
 Frequencies --    866.9872               886.3547               934.1278
 Red. masses --      1.6008                 1.2565                 1.6362
 Frc consts  --      0.7090                 0.5816                 0.8412
 IR Inten    --     56.2917                 0.0000                 8.6403

                     25                     26                     27
                      A                      A                      A
 Frequencies --    965.2880               980.3642               981.3246
 Red. masses --      2.2205                 3.6885                 1.2852
 Frc consts  --      1.2190                 2.0887                 0.7292
 IR Inten    --      0.0652                 1.9013                 0.0000

                     28                     29                     30
                      A                      A                      A
 Frequencies --    991.6172              1017.5327              1051.6111
 Red. masses --      1.3330                 1.5175                 1.6310
 Frc consts  --      0.7723                 0.9257                 1.0627
 IR Inten    --      1.2512                11.5069                 0.3871

                     31                     32                     33
                      A                      A                      A
 Frequencies --   1072.3525              1073.5598              1170.9601
 Red. masses --      1.5535                 1.5545                 1.5581
 Frc consts  --      1.0525                 1.0556                 1.2587
 IR Inten    --      0.0000                 6.6157                 2.0708

                     34                     35                     36
                      A                      A                      A
 Frequencies --   1177.2695              1208.6371              1214.5736
 Red. masses --      1.3713                 1.2806                 2.0980
 Frc consts  --      1.1198                 1.1022                 1.8235
 IR Inten    --      2.0483                 0.9630                 3.6845

                     37                     38                     39
                      A                      A                      A
 Frequencies --   1233.2119              1289.8218              1306.3177
 Red. masses --      3.7497                 1.5688                 1.8235
 Frc consts  --      3.3599                 1.5377                 1.8333
 IR Inten    --      0.0000                 0.0024                 3.4090

                     40                     41                     42
                      A                      A                      A
 Frequencies --   1380.9708              1419.8027              1421.6152
 Red. masses --      1.7797                 1.4904                 1.3509
 Frc consts  --      1.9996                 1.7701                 1.6085
 IR Inten    --      1.0896                 0.7254                 0.8580

                     43                     44                     45
                      A                      A                      A
 Frequencies --   1426.2532              1433.3324              1464.5664
 Red. masses --      2.6149                 4.3028                 2.0233
 Frc consts  --      3.1339                 5.2083                 2.5570
 IR Inten    --      5.3220                 0.0627                 2.3969

                     46                     47                     48
                      A                      A                      A
 Frequencies --   1489.2325              1489.3505              1494.0647
 Red. masses --      1.0425                 1.0425                 1.2279
 Frc consts  --      1.3622                 1.3625                 1.6149
 IR Inten    --      0.0000                14.5147                17.4599

                     49                     50                     51
                      A                      A                      A
 Frequencies --   1514.2254              1517.4007              1572.8106
 Red. masses --      1.5152                 2.0149                 3.4477
 Frc consts  --      2.0469                 2.7334                 5.0250
 IR Inten    --      0.5883                 0.0423                19.6447

                     52                     53                     54
                      A                      A                      A
 Frequencies --   1649.4267              1690.6329              1719.3410
 Red. masses --      6.9208                 5.9312                 6.6454
 Frc consts  --     11.0936                 9.9882                11.5744
 IR Inten    --      0.1457                 8.2968                31.8503

                     55                     56                     57
                      A                      A                      A
 Frequencies --   3049.8153              3050.0691              3110.9823
 Red. masses --      1.0370                 1.0370                 1.1008
 Frc consts  --      5.6831                 5.6840                 6.2770
 IR Inten    --     61.0554                 7.2802                 0.0000

                     58                     59                     60
                      A                      A                      A
 Frequencies --   3111.0075              3139.3939              3139.4639
 Red. masses --      1.1008                 1.1017                 1.1017
 Frc consts  --      6.2770                 6.3975                 6.3977
 IR Inten    --     27.8044                 1.1712                27.0301

                     61                     62                     63
                      A                      A                      A
 Frequencies --   3177.4553              3179.9358              3180.8520
 Red. masses --      1.0907                 1.0904                 1.0866
 Frc consts  --      6.4879                 6.4965                 6.4773
 IR Inten    --      1.4832                29.1719                 7.4654

                     64                     65                     66
                      A                      A                      A
 Frequencies --   3181.4567              3199.7504              3201.1675
 Red. masses --      1.0866                 1.0965                 1.0957
 Frc consts  --      6.4798                 6.6142                 6.6156
 IR Inten    --      0.2707                14.3327                24.0140

 - Thermochemistry -
 -------------------
 Temperature   298.150 Kelvin.  Pressure   1.00000 Atm.
 Atom     1 has atomic number  6 and mass  12.00000

 Molecular mass:   156.09390 amu.
 Principal axes and moments of inertia in atomic units:
                           1         2         3
     Eigenvalues --   773.134032951.766773702.62819
           X            1.00000   0.00000   0.00000
           Y            0.00000   1.00000   0.00000
           Z            0.00000   0.00000   1.00000
 This molecule is an asymmetric top.
 Rotational symmetry number  1.
 Warning -- assumption of classical behavior for rotation
           may cause significant error
 Rotational temperatures (Kelvin)      0.11203     0.02934     0.02339
 Rotational constants (GHZ):           2.33432     0.61141     0.48742
 Zero-point vibrational energy     534998.0 (Joules/Mol)
                                  127.86759 (Kcal/Mol)
 Warning -- explicit consideration of  14 degrees of freedom as
           vibrations may cause significant error
 Vibrational temperatures:    128.38   146.56   175.17   189.62   318.73
          (Kelvin)            404.76   414.06   481.20   606.58   620.53
                              655.61   688.01   709.57   811.09   941.33
                              944.23  1002.76  1136.05  1148.74  1154.65
                             1161.09  1247.40  1275.27  1344.00  1388.83
                             1410.52  1411.91  1426.71  1464.00  1513.03
                             1542.87  1544.61  1684.75  1693.83  1738.96
                             1747.50  1774.31  1855.76  1879.50  1986.91
                             2042.78  2045.38  2052.06  2062.24  2107.18
                             2142.67  2142.84  2149.62  2178.63  2183.20
                             2262.92  2373.15  2432.44  2473.75  4388.00
                             4388.36  4476.00  4476.04  4516.88  4516.98
                             4571.64  4575.21  4576.53  4577.40  4603.72
                             4605.76

 Zero-point correction=                           0.203770 (Hartree/Particle)
 Thermal correction to Energy=                    0.214043
 Thermal correction to Enthalpy=                  0.214987
 Thermal correction to Gibbs Free Energy=         0.168082
 Sum of electronic and zero-point Energies=           -464.322965
 Sum of electronic and thermal Energies=              -464.312692
 Sum of electronic and thermal Enthalpies=            -464.311748
 Sum of electronic and thermal Free Energies=         -464.358653

                     E (Thermal)             CV                S
                      KCal/Mol        Cal/Mol-Kelvin    Cal/Mol-Kelvin
 Total                  134.314             40.531             98.720
 Electronic               0.000              0.000              0.000
 Translational            0.889              2.981             41.045
 Rotational               0.889              2.981             30.514
 Vibrational            132.537             34.569             27.161
 Vibration     1          0.602              1.957              3.677
 Vibration     2          0.604              1.948              3.418
 Vibration     3          0.609              1.931              3.072
 Vibration     4          0.612              1.922              2.920
 Vibration     5          0.648              1.808              1.947
 Vibration     6          0.681              1.708              1.526
 Vibration     7          0.685              1.696              1.487
 Vibration     8          0.716              1.607              1.239
 Vibration     9          0.784              1.423              0.887
 Vibration    10          0.792              1.402              0.854
 Vibration    11          0.814              1.348              0.779
 Vibration    12          0.835              1.298              0.715
 Vibration    13          0.849              1.265              0.675
 Vibration    14          0.920              1.110              0.516

 Optimization completed.
    -- Stationary point found.
 Normal termination of Gaussian 09 at Fri Jul  9 20:16:17 2021.
