 Gaussian 09, Revision D.01,
 Gaussian 09:  AM64L-G09RevD.01 24-Apr-2013

 ----------------------------------------------------------------------
 #P wB97XD/def2tzvp opt=(tight) freq integral(Grid=ultrafine) # SCF(Max
 Cycle=380) 5d 7f GFPrint
 ----------------------------------------------------------------------

 ---------------------------------------
 The PBEPBE optimization and frequencies
 ---------------------------------------
 Symbolic Z-matrix:
 Charge =  0 Multiplicity = 1

 SCF Done:  E(RwB97XD) =  -154.732099574     A.U. after   14 cycles
 SCF Done:  E(RwB97XD) =  -154.732180698     A.U. after   11 cycles
 SCF Done:  E(RwB97XD) =  -154.732099127     A.U. after   11 cycles
 SCF Done:  E(RwB97XD) =  -154.732182967     A.U. after   12 cycles
 SCF Done:  E(RwB97XD) =  -154.732185862     A.U. after    8 cycles
 SCF Done:  E(RwB97XD) =  -154.732185911     A.U. after    6 cycles
 SCF Done:  E(RwB97XD) =  -154.732185912     A.U. after    5 cycles
 SCF Done:  E(RwB97XD) =  -154.732185912     A.U. after    4 cycles
 Optimization completed.
    -- Stationary point found.
 Normal termination of Gaussian 09 at Thu Sep 28 16:37:10 2023.

 ---------------------------------------------------------------------
 #P Geom=AllCheck Guess=TCheck SCRF=Check GenChk RwB97XD/def2TZVP Freq
 ---------------------------------------------------------------------

 Structure from the checkpoint file:  "m1_00_689-97-40_C4H4_wB97XD.chk"
 ---------------------------------------
 The PBEPBE optimization and frequencies
 ---------------------------------------
 Charge =  0 Multiplicity = 1

                         Standard orientation:
 ---------------------------------------------------------------------
 Center     Atomic      Atomic             Coordinates (Angstroms)
 Number     Number       Type             X           Y           Z
 ---------------------------------------------------------------------
      1          6           0       -0.112793   -1.685791    0.000000
      2          6           0        0.586634   -0.555969    0.000000
      3          6           0        0.000000    0.743241    0.000000
      4          6           0       -0.469096    1.847102    0.000000
      5          1           0        0.386983   -2.645376    0.000000
      6          1           0       -1.195241   -1.681038    0.000000
      7          1           0        1.671190   -0.588210    0.000000
      8          1           0       -0.891405    2.823125    0.000000
 ---------------------------------------------------------------------

 SCF Done:  E(RwB97XD) =  -154.732185912     A.U. after    1 cycles

 The electronic state is 1-A'.
 Alpha  occ. eigenvalues --  -10.31608 -10.29783 -10.29390 -10.28416  -0.91236
 Alpha  occ. eigenvalues --   -0.83747  -0.71759  -0.62412  -0.58665  -0.54073
 Alpha  occ. eigenvalues --   -0.47012  -0.43139  -0.36667  -0.33107
 Alpha virt. eigenvalues --    0.03058   0.10233   0.15096   0.15708   0.16323
 Alpha virt. eigenvalues --    0.17367   0.18563   0.22184   0.24479   0.26021
 Alpha virt. eigenvalues --    0.28169   0.31122   0.32091   0.34375   0.34889

 Mulliken charges:
               1
     1  C   -0.237433
     2  C   -0.190352
     3  C   -0.083752
     4  C   -0.103788
     5  H    0.136113
     6  H    0.140779
     7  H    0.139983
     8  H    0.198450
 Sum of Mulliken charges =   0.00000

 Dipole moment (field-independent basis, Debye):
    X=              0.0720    Y=             -0.4454    Z=              0.0000  Tot=              0.4512
 Quadrupole moment (field-independent basis, Debye-Ang):
   XX=            -22.3945   YY=            -18.5589   ZZ=            -26.7485
   XY=             -1.9047   XZ=              0.0000   YZ=              0.0000

  Exact polarizability:  37.731  -4.342  74.468   0.000   0.000  27.741
 Approx polarizability:  41.756  -5.279  79.303   0.000   0.000  30.485

                      1                      2                      3
                     A'                     A"                     A'
 Frequencies --    228.2376               326.5977               565.9314
 Red. masses --      3.0169                 2.2592                 3.2925
 Frc consts  --      0.0926                 0.1420                 0.6213
 IR Inten    --      3.3181                12.5333                 7.3701

                      4                      5                      6
                     A"                     A'                     A"
 Frequencies --    685.3166               703.3808               715.6514
 Red. masses --      1.2560                 1.2866                 2.0116
 Frc consts  --      0.3476                 0.3750                 0.6070
 IR Inten    --     42.7594                45.8484                 6.8827

                      7                      8                      9
                     A'                     A"                     A"
 Frequencies --    896.2721               982.1756              1023.6902
 Red. masses --      2.6009                 1.3173                 1.1277
 Frc consts  --      1.2310                 0.7487                 0.6963
 IR Inten    --      2.1519                52.2111                11.6786

                     10                     11                     12
                     A'                     A'                     A'
 Frequencies --   1118.4023              1331.4758              1451.4340
 Red. masses --      1.6390                 1.2818                 1.1980
 Frc consts  --      1.2079                 1.3389                 1.4869
 IR Inten    --      4.6094                 0.6847                 4.0729

                     13                     14                     15
                     A'                     A'                     A'
 Frequencies --   1703.9333              2242.4517              3169.1719
 Red. masses --      4.4805                 5.9801                 1.0591
 Frc consts  --      7.6644                17.7175                 6.2674
 IR Inten    --      9.1787                 0.9107                 1.9123

                     16                     17                     18
                     A'                     A'                     A'
 Frequencies --   3181.8242              3265.0511              3479.9610
 Red. masses --      1.0909                 1.1178                 1.1627
 Frc consts  --      6.5073                 7.0210                 8.2961
 IR Inten    --      4.0593                 4.0313                72.4205

 - Thermochemistry -
 -------------------
 Temperature   298.150 Kelvin.  Pressure   1.00000 Atm.
 Atom     1 has atomic number  6 and mass  12.00000

 Molecular mass:    52.03130 amu.
 Principal axes and moments of inertia in atomic units:
                           1         2         3
     Eigenvalues --    35.23108 377.97873 413.20981
           X           -0.15357   0.98814   0.00000
           Y            0.98814   0.15357   0.00000
           Z            0.00000   0.00000   1.00000
 This molecule is an asymmetric top.
 Rotational symmetry number  1.
 Rotational temperatures (Kelvin)      2.45845     0.22915     0.20961
 Rotational constants (GHZ):          51.22582     4.77472     4.36761
 Zero-point vibrational energy     161920.3 (Joules/Mol)
                                   38.69988 (Kcal/Mol)
 Warning -- explicit consideration of   3 degrees of freedom as
           vibrations may cause significant error
 Vibrational temperatures:    328.38   469.90   814.25   986.02  1012.01
          (Kelvin)           1029.66  1289.53  1413.13  1472.86  1609.13
                             1915.69  2088.29  2451.58  3226.38  4559.73
                             4577.93  4697.67  5006.88

 Zero-point correction=                           0.061672 (Hartree/Particle)
 Thermal correction to Energy=                    0.066096
 Thermal correction to Enthalpy=                  0.067040
 Thermal correction to Gibbs Free Energy=         0.035672
 Sum of electronic and zero-point Energies=           -154.670514
 Sum of electronic and thermal Energies=              -154.666090
 Sum of electronic and thermal Enthalpies=            -154.665146
 Sum of electronic and thermal Free Energies=         -154.696514

                     E (Thermal)             CV                S
                      KCal/Mol        Cal/Mol-Kelvin    Cal/Mol-Kelvin
 Total                   41.476             14.749             66.020
 Electronic               0.000              0.000              0.000
 Translational            0.889              2.981             37.771
 Rotational               0.889              2.981             23.224
 Vibrational             39.698              8.787              5.025
 Vibration     1          0.651              1.798              1.893
 Vibration     2          0.710              1.622              1.277
 Vibration     3          0.922              1.105              0.512

 Optimization completed.
    -- Stationary point found.
 Normal termination of Gaussian 09 at Thu Sep 28 16:37:40 2023.
