 Gaussian 09, Revision D.01,
 Gaussian 09:  AM64L-G09RevD.01 24-Apr-2013

 ----------------------------------------------------------------------
 #P wB97XD/def2tzvp opt=(tight) freq integral(Grid=ultrafine) # SCF(Max
 Cycle=380) 5d 7f GFPrint
 ----------------------------------------------------------------------

 ---------------------------------------
 The PBEPBE optimization and frequencies
 ---------------------------------------
 Symbolic Z-matrix:
 Charge =  0 Multiplicity = 1

 SCF Done:  E(RwB97XD) =  -1230.30984059     A.U. after   15 cycles
 SCF Done:  E(RwB97XD) =  -1230.31349886     A.U. after   12 cycles
 SCF Done:  E(RwB97XD) =  -1230.31359154     A.U. after   11 cycles
 SCF Done:  E(RwB97XD) =  -1230.31359881     A.U. after    9 cycles
 SCF Done:  E(RwB97XD) =  -1230.31359956     A.U. after    8 cycles
 SCF Done:  E(RwB97XD) =  -1230.31360000     A.U. after    8 cycles
 SCF Done:  E(RwB97XD) =  -1230.31360045     A.U. after    9 cycles
 SCF Done:  E(RwB97XD) =  -1230.31360059     A.U. after    8 cycles
 SCF Done:  E(RwB97XD) =  -1230.31360063     A.U. after    7 cycles
 SCF Done:  E(RwB97XD) =  -1230.31360064     A.U. after    7 cycles
 SCF Done:  E(RwB97XD) =  -1230.31360065     A.U. after    7 cycles
 SCF Done:  E(RwB97XD) =  -1230.31360065     A.U. after    5 cycles
 Optimization completed.
    -- Stationary point found.
 Normal termination of Gaussian 09 at Sat Jul 27 22:09:08 2019.

 ---------------------------------------------------------------------
 #P Geom=AllCheck Guess=TCheck SCRF=Check GenChk RwB97XD/def2TZVP Freq
 ---------------------------------------------------------------------

 Structure from the checkpoint file:  "m1_00_192-60-9-C32H18_wB97XD.chk"
 ---------------------------------------
 The PBEPBE optimization and frequencies
 ---------------------------------------
 Charge =  0 Multiplicity = 1

                         Standard orientation:
 ---------------------------------------------------------------------
 Center     Atomic      Atomic             Coordinates (Angstroms)
 Number     Number       Type             X           Y           Z
 ---------------------------------------------------------------------
      1          6           0        4.490438   -0.701172    0.112839
      2          6           0        4.490438    0.701173    0.112851
      3          6           0        3.232826   -1.429270   -0.062980
      4          6           0        5.707428   -1.374883    0.302693
      5          6           0        3.232825    1.429273   -0.062972
      6          6           0        5.707427    1.374880    0.302733
      7          6           0        2.009934    0.725599   -0.099485
      8          6           0        2.009935   -0.725595   -0.099486
      9          6           0        0.794220   -1.437498   -0.203038
     10          6           0        0.794220    1.437501   -0.203041
     11          6           0        3.217926    2.817491   -0.196610
     12          6           0        3.217927   -2.817487   -0.196605
     13          6           0       -0.487255    0.717690   -0.157147
     14          6           0       -0.487254   -0.717687   -0.157147
     15          6           0       -1.683252   -1.381800   -0.083075
     16          6           0       -1.683253    1.381801   -0.083074
     17          6           0        0.833185    2.819384   -0.341521
     18          6           0        0.833185   -2.819381   -0.341510
     19          6           0       -2.925738    0.712510   -0.023543
     20          6           0       -2.925737   -0.712509   -0.023544
     21          6           0       -4.140770   -1.395415    0.045101
     22          6           0       -4.140771    1.395414    0.045104
     23          6           0        2.033454    3.502912   -0.347221
     24          6           0        2.033454   -3.502910   -0.347206
     25          6           0       -5.348864    0.716665    0.109840
     26          6           0       -5.348863   -0.716666    0.109838
     27          6           0       -6.601571    1.399636    0.177840
     28          6           0       -6.601570   -1.399639    0.177837
     29          6           0        6.888491   -0.696133    0.477956
     30          6           0        6.888490    0.696125    0.477980
     31          6           0       -7.767679    0.712033    0.241178
     32          6           0       -7.767678   -0.712037    0.241176
     33          1           0        5.730364   -2.454117    0.331699
     34          1           0        5.730360    2.454112    0.331776
     35          1           0        4.141359    3.376474   -0.206889
     36          1           0        4.141360   -3.376471   -0.206876
     37          1           0       -1.711243   -2.461910   -0.049051
     38          1           0       -1.711245    2.461911   -0.049049
     39          1           0       -0.079600    3.382666   -0.466025
     40          1           0       -0.079601   -3.382665   -0.466006
     41          1           0       -4.139979   -2.480087    0.046573
     42          1           0       -4.139981    2.480087    0.046578
     43          1           0        2.042038    4.578282   -0.470336
     44          1           0        2.042038   -4.578281   -0.470310
     45          1           0       -6.599655    2.483294    0.177753
     46          1           0       -6.599653   -2.483297    0.177746
     47          1           0        7.810185   -1.243933    0.626491
     48          1           0        7.810183    1.243921    0.626538
     49          1           0       -8.710099    1.242388    0.292409
     50          1           0       -8.710098   -1.242392    0.292406
 ---------------------------------------------------------------------

 SCF Done:  E(RwB97XD) =  -1230.31360065     A.U. after    1 cycles

 The electronic state is 1-A.
 Alpha  occ. eigenvalues --  -10.30589 -10.30556 -10.30554 -10.30530 -10.30506
 Alpha  occ. eigenvalues --  -10.30499 -10.30469 -10.30457 -10.30408 -10.30357
 Alpha  occ. eigenvalues --  -10.30142 -10.30101 -10.30066 -10.30023 -10.29268
 Alpha  occ. eigenvalues --  -10.29265 -10.29184 -10.29177 -10.29175 -10.29172
 Alpha  occ. eigenvalues --  -10.29099 -10.29067 -10.29063 -10.29059 -10.29029
 Alpha  occ. eigenvalues --  -10.29028 -10.28995 -10.28948 -10.28948 -10.28947
 Alpha  occ. eigenvalues --  -10.28921 -10.28921  -1.00904  -0.99345  -0.97388
 Alpha  occ. eigenvalues --   -0.96478  -0.95552  -0.92217  -0.89912  -0.89867
 Alpha  occ. eigenvalues --   -0.88461  -0.88273  -0.86285  -0.84516  -0.83999
 Alpha  occ. eigenvalues --   -0.82631  -0.81849  -0.80053  -0.76450  -0.73365
 Alpha  occ. eigenvalues --   -0.72824  -0.72687  -0.72660  -0.70200  -0.69535
 Alpha  occ. eigenvalues --   -0.67946  -0.67172  -0.65120  -0.64480  -0.62681
 Alpha  occ. eigenvalues --   -0.61285  -0.60367  -0.59108  -0.58420  -0.57970
 Alpha  occ. eigenvalues --   -0.56566  -0.55851  -0.54499  -0.54222  -0.54211
 Alpha  occ. eigenvalues --   -0.52620  -0.52546  -0.52054  -0.51928  -0.51906
 Alpha  occ. eigenvalues --   -0.50931  -0.50756  -0.50147  -0.50063  -0.49665
 Alpha  occ. eigenvalues --   -0.48265  -0.48019  -0.47649  -0.46588  -0.46236
 Alpha  occ. eigenvalues --   -0.45247  -0.45125  -0.45013  -0.44825  -0.42966
 Alpha  occ. eigenvalues --   -0.42910  -0.41306  -0.41014  -0.40307  -0.39856
 Alpha  occ. eigenvalues --   -0.39521  -0.38300  -0.37530  -0.36141  -0.34877
 Alpha  occ. eigenvalues --   -0.31960  -0.31929  -0.29747  -0.28087  -0.25949
 Alpha virt. eigenvalues --   -0.02313   0.00374   0.01702   0.03343   0.03774
 Alpha virt. eigenvalues --    0.06144   0.08419   0.08860   0.11211   0.11320
 Alpha virt. eigenvalues --    0.11737   0.12379   0.12779   0.13193   0.13218

 Mulliken charges:
               1
     1  C    0.098384
     2  C    0.098369
     3  C    0.168089
     4  C   -0.192562
     5  C    0.168085
     6  C   -0.192557
     7  C   -0.163297
     8  C   -0.163293
     9  C    0.101616
    10  C    0.101612
    11  C   -0.199885
    12  C   -0.199889
    13  C    0.183515
    14  C    0.183517
    15  C   -0.294329
    16  C   -0.294328
    17  C   -0.182219
    18  C   -0.182221
    19  C    0.207392
    20  C    0.207394
    21  C   -0.316851
    22  C   -0.316850
    23  C   -0.103832
    24  C   -0.103831
    25  C    0.192679
    26  C    0.192679
    27  C   -0.236846
    28  C   -0.236846
    29  C   -0.107071
    30  C   -0.107074
    31  C   -0.096443
    32  C   -0.096443
    33  H    0.097352
    34  H    0.097354
    35  H    0.094995
    36  H    0.094994
    37  H    0.096094
    38  H    0.096094
    39  H    0.095656
    40  H    0.095656
    41  H    0.103272
    42  H    0.103272
    43  H    0.110181
    44  H    0.110181
    45  H    0.109998
    46  H    0.109998
    47  H    0.115073
    48  H    0.115074
    49  H    0.119047
    50  H    0.119047
 Sum of Mulliken charges =   0.00000

 Dipole moment (field-independent basis, Debye):
    X=              0.0208    Y=              0.0000    Z=              0.0358  Tot=              0.0414
 Quadrupole moment (field-independent basis, Debye-Ang):
   XX=           -155.5018   YY=           -156.9371   ZZ=           -193.7965
   XY=              0.0000   XZ=              1.0253   YZ=              0.0000

  Exact polarizability: 722.377   0.000 393.115   3.015   0.000 163.969
 Approx polarizability: 645.286   0.000 507.002   3.856   0.000 229.622

                      1                      2                      3
                      A                      A                      A
 Frequencies --     15.5648                36.4707                49.3306
 Red. masses --      5.7964                 4.1536                 5.6813
 Frc consts  --      0.0008                 0.0033                 0.0081
 IR Inten    --      0.0255                 0.0014                 0.4480

                      4                      5                      6
                      A                      A                      A
 Frequencies --     76.1048                96.0143               107.9717
 Red. masses --      3.8714                 5.5371                 4.6623
 Frc consts  --      0.0132                 0.0301                 0.0320
 IR Inten    --      0.0034                 0.1181                 1.1393

                      7                      8                      9
                      A                      A                      A
 Frequencies --    121.1165               143.2912               180.5737
 Red. masses --      5.3738                 3.9877                 3.5786
 Frc consts  --      0.0464                 0.0482                 0.0688
 IR Inten    --      1.1404                 0.0145                 0.0172

                     10                     11                     12
                      A                      A                      A
 Frequencies --    201.1796               218.3745               221.5776
 Red. masses --      5.1101                 6.8724                 5.5665
 Frc consts  --      0.1219                 0.1931                 0.1610
 IR Inten    --      1.4035                 0.4225                 0.1923

                     13                     14                     15
                      A                      A                      A
 Frequencies --    274.4413               282.7372               295.9863
 Red. masses --      4.4836                 4.8000                 4.4191
 Frc consts  --      0.1990                 0.2261                 0.2281
 IR Inten    --      0.2021                 0.7214                 0.0575

                     16                     17                     18
                      A                      A                      A
 Frequencies --    344.4774               350.4793               357.5599
 Red. masses --      4.8379                 4.6469                 5.7427
 Frc consts  --      0.3382                 0.3363                 0.4326
 IR Inten    --      0.1115                 0.0241                 0.1004

                     19                     20                     21
                      A                      A                      A
 Frequencies --    396.3883               413.9165               423.3809
 Red. masses --      6.0439                 4.5463                 5.7350
 Frc consts  --      0.5595                 0.4589                 0.6057
 IR Inten    --      0.0796                 0.9554                 0.0646

                     22                     23                     24
                      A                      A                      A
 Frequencies --    424.2112               438.1567               466.4940
 Red. masses --      4.4558                 3.3511                 6.3576
 Frc consts  --      0.4724                 0.3791                 0.8151
 IR Inten    --      0.3893                 3.0910                 0.0857

                     25                     26                     27
                      A                      A                      A
 Frequencies --    479.6375               487.7945               499.0403
 Red. masses --      2.6951                 2.6283                 4.4680
 Frc consts  --      0.3653                 0.3685                 0.6556
 IR Inten    --      6.2174                12.8871                 0.0059

                     28                     29                     30
                      A                      A                      A
 Frequencies --    520.4636               523.9545               527.6860
 Red. masses --      6.3333                 5.8439                 3.9546
 Frc consts  --      1.0108                 0.9452                 0.6488
 IR Inten    --      0.0005                14.9584                 4.1670

                     31                     32                     33
                      A                      A                      A
 Frequencies --    554.8929               569.3959               578.2355
 Red. masses --      3.5832                 5.4724                 3.2443
 Frc consts  --      0.6500                 1.0453                 0.6391
 IR Inten    --      0.0048                 0.2617                 0.2637

                     34                     35                     36
                      A                      A                      A
 Frequencies --    610.1977               630.1111               630.2631
 Red. masses --      4.3985                 7.0169                 5.7977
 Frc consts  --      0.9649                 1.6414                 1.3569
 IR Inten    --      0.0542                 0.1179                 1.4624

                     37                     38                     39
                      A                      A                      A
 Frequencies --    635.6033               642.2820               649.5206
 Red. masses --      4.0136                 5.3019                 6.8898
 Frc consts  --      0.9553                 1.2886                 1.7125
 IR Inten    --      1.8121                 0.1357                 7.1107

                     40                     41                     42
                      A                      A                      A
 Frequencies --    672.7765               680.9767               734.0350
 Red. masses --      6.6953                 6.4039                 4.7769
 Frc consts  --      1.7855                 1.7497                 1.5165
 IR Inten    --      3.9380                 0.0000                 0.0390

                     43                     44                     45
                      A                      A                      A
 Frequencies --    738.3171               763.5612               764.3296
 Red. masses --      1.7642                 2.9297                 1.2767
 Frc consts  --      0.5666                 1.0064                 0.4394
 IR Inten    --      8.6063                 0.0135                62.2931

                     46                     47                     48
                      A                      A                      A
 Frequencies --    766.3022               780.1186               785.9766
 Red. masses --      4.4496                 1.3104                 5.6444
 Frc consts  --      1.5395                 0.4699                 2.0544
 IR Inten    --      2.1239               110.3337                 1.3176

                     49                     50                     51
                      A                      A                      A
 Frequencies --    790.6007               795.2103               796.5425
 Red. masses --      2.3578                 2.4249                 5.4278
 Frc consts  --      0.8683                 0.9034                 2.0291
 IR Inten    --      0.3843                 0.5493                 3.2627

                     52                     53                     54
                      A                      A                      A
 Frequencies --    802.8997               812.2120               835.6718
 Red. masses --      1.9988                 5.8378                 2.6323
 Frc consts  --      0.7592                 2.2690                 1.0831
 IR Inten    --      1.1891                 5.3760                13.3358

                     55                     56                     57
                      A                      A                      A
 Frequencies --    851.2676               862.4564               876.6723
 Red. masses --      6.4512                 1.3344                 1.7740
 Frc consts  --      2.7544                 0.5848                 0.8033
 IR Inten    --      0.0099                 0.0308                 0.1586

                     58                     59                     60
                      A                      A                      A
 Frequencies --    886.7371               891.2552               901.1064
 Red. masses --      1.7659                 2.7270                 2.0924
 Frc consts  --      0.8181                 1.2763                 1.0010
 IR Inten    --      4.8857                 3.2538                 0.1153

                     61                     62                     63
                      A                      A                      A
 Frequencies --    916.9569               928.5531               929.2270
 Red. masses --      3.1474                 1.4760                 1.5521
 Frc consts  --      1.5592                 0.7498                 0.7896
 IR Inten    --      0.6334                 0.8874                 0.0017

                     64                     65                     66
                      A                      A                      A
 Frequencies --    937.6964               943.6897               944.2517
 Red. masses --      4.8865                 1.5981                 2.1548
 Frc consts  --      2.5315                 0.8385                 1.1319
 IR Inten    --      0.9690                50.7175                 0.1419

                     67                     68                     69
                      A                      A                      A
 Frequencies --    973.8908               987.7438               990.2564
 Red. masses --      1.3821                 1.3180                 1.3115
 Frc consts  --      0.7723                 0.7576                 0.7577
 IR Inten    --      0.0762                 0.3318                 0.2192

                     70                     71                     72
                      A                      A                      A
 Frequencies --    992.3846               996.8263              1003.9977
 Red. masses --      1.3506                 1.2805                 1.2915
 Frc consts  --      0.7837                 0.7496                 0.7670
 IR Inten    --      3.2901                 0.0006                 0.0000

                     73                     74                     75
                      A                      A                      A
 Frequencies --   1006.4297              1033.6276              1034.5242
 Red. masses --      7.4941                 7.0339                 2.3369
 Frc consts  --      4.4724                 4.4277                 1.4736
 IR Inten    --      1.9840                 2.5512                 3.9283

                     76                     77                     78
                      A                      A                      A
 Frequencies --   1055.2128              1093.6157              1112.4346
 Red. masses --      4.9570                 1.9289                 3.6751
 Frc consts  --      3.2520                 1.3592                 2.6796
 IR Inten    --      0.3691                 7.7768                 0.0023

                     79                     80                     81
                      A                      A                      A
 Frequencies --   1128.7620              1139.6729              1152.4621
 Red. masses --      2.5139                 2.0285                 1.5380
 Frc consts  --      1.8871                 1.5523                 1.2035
 IR Inten    --      1.4308                 1.0781                 8.0207

                     82                     83                     84
                      A                      A                      A
 Frequencies --   1157.4708              1165.5229              1186.3012
 Red. masses --      1.8267                 1.8649                 1.4518
 Frc consts  --      1.4419                 1.4926                 1.2038
 IR Inten    --      2.9831                 0.9342                 2.7512

                     85                     86                     87
                      A                      A                      A
 Frequencies --   1202.6467              1207.1546              1219.8863
 Red. masses --      1.1302                 1.1728                 1.3061
 Frc consts  --      0.9631                 1.0070                 1.1452
 IR Inten    --      2.1149                 0.5478                 3.4192

                     88                     89                     90
                      A                      A                      A
 Frequencies --   1228.5517              1243.8159              1259.9187
 Red. masses --      1.3169                 1.4759                 2.6789
 Frc consts  --      1.1711                 1.3453                 2.5055
 IR Inten    --      0.4065                 0.1718                 1.0915

                     91                     92                     93
                      A                      A                      A
 Frequencies --   1279.0153              1292.3422              1298.9339
 Red. masses --      1.9223                 2.0887                 1.7288
 Frc consts  --      1.8528                 2.0554                 1.7185
 IR Inten    --      0.2334                 0.0275                 5.9325

                     94                     95                     96
                      A                      A                      A
 Frequencies --   1311.2224              1316.3030              1326.4476
 Red. masses --      1.9866                 3.2675                 1.6571
 Frc consts  --      2.0124                 3.3356                 1.7178
 IR Inten    --      2.8732                 3.4339                 1.2524

                     97                     98                     99
                      A                      A                      A
 Frequencies --   1337.3281              1338.2769              1349.4080
 Red. masses --      2.7448                 4.8572                 4.1438
 Frc consts  --      2.8923                 5.1254                 4.4456
 IR Inten    --      2.4690                 0.3042                 1.6291

                    100                    101                    102
                      A                      A                      A
 Frequencies --   1350.0085              1376.1072              1380.2645
 Red. masses --      3.2879                 2.9566                 4.8595
 Frc consts  --      3.5305                 3.2988                 5.4546
 IR Inten    --      0.9793                 2.9036                 0.4037

                    103                    104                    105
                      A                      A                      A
 Frequencies --   1381.5547              1399.8154              1449.9218
 Red. masses --      2.9378                 2.1988                 2.3784
 Frc consts  --      3.3038                 2.5385                 2.9459
 IR Inten    --      0.1480                 0.2186                22.7246

                    106                    107                    108
                      A                      A                      A
 Frequencies --   1450.7247              1463.2265              1470.5466
 Red. masses --      3.8070                 5.6878                 5.4158
 Frc consts  --      4.7207                 7.1750                 6.9004
 IR Inten    --      9.9981                 0.6729                 4.4913

                    109                    110                    111
                      A                      A                      A
 Frequencies --   1489.2181              1496.3698              1511.3360
 Red. masses --      2.3590                 3.4045                 2.3570
 Frc consts  --      3.0825                 4.4914                 3.1720
 IR Inten    --     65.6700                 0.3756                 2.7248

                    112                    113                    114
                      A                      A                      A
 Frequencies --   1529.6118              1531.5880              1548.4188
 Red. masses --      3.6807                 3.5782                 2.9655
 Frc consts  --      5.0739                 4.9454                 4.1891
 IR Inten    --      0.6192                 1.8843                 1.1581

                    115                    116                    117
                      A                      A                      A
 Frequencies --   1548.7950              1600.8812              1621.9713
 Red. masses --      2.9006                 4.8515                 5.0944
 Frc consts  --      4.0994                 7.3256                 7.8964
 IR Inten    --      0.3132                 2.3103                19.8918

                    118                    119                    120
                      A                      A                      A
 Frequencies --   1632.3268              1654.6476              1657.0161
 Red. masses --      6.8393                 5.9441                 6.2748
 Frc consts  --     10.7368                 9.5884                10.1509
 IR Inten    --      0.2350                 0.8010                 7.0103

                    121                    122                    123
                      A                      A                      A
 Frequencies --   1668.2069              1675.5505              1680.5376
 Red. masses --      6.0722                 6.8649                 6.6999
 Frc consts  --      9.9562                11.3554                11.1484
 IR Inten    --      4.5579                 2.2860                 1.3833

                    124                    125                    126
                      A                      A                      A
 Frequencies --   1688.0343              1706.8352              1714.3428
 Red. masses --      5.9360                 6.8116                 6.3841
 Frc consts  --      9.9657                11.6918                11.0547
 IR Inten    --      0.1308                 3.0123                 1.5964

                    127                    128                    129
                      A                      A                      A
 Frequencies --   3183.2563              3185.1172              3188.1066
 Red. masses --      1.0904                 1.0908                 1.0860
 Frc consts  --      6.5098                 6.5200                 6.5037
 IR Inten    --     12.0484                 1.1282                 3.1274

                    130                    131                    132
                      A                      A                      A
 Frequencies --   3192.7201              3198.8992              3203.1912
 Red. masses --      1.0884                 1.0865                 1.0883
 Frc consts  --      6.5368                 6.5505                 6.5790
 IR Inten    --      1.1132                 0.1116                19.2269

                    133                    134                    135
                      A                      A                      A
 Frequencies --   3203.1935              3207.2002              3213.7315
 Red. masses --      1.0882                 1.0949                 1.0919
 Frc consts  --      6.5785                 6.6356                 6.6440
 IR Inten    --      1.1428                21.1319                23.8804

                    136                    137                    138
                      A                      A                      A
 Frequencies --   3216.0872              3217.5440              3219.6568
 Red. masses --      1.0914                 1.0919                 1.0980
 Frc consts  --      6.6507                 6.6598                 6.7061
 IR Inten    --      0.3444                 1.5214                28.3813

                    139                    140                    141
                      A                      A                      A
 Frequencies --   3228.9709              3231.6556              3239.3001
 Red. masses --      1.0936                 1.0955                 1.0901
 Frc consts  --      6.7176                 6.7407                 6.7395
 IR Inten    --      1.8908                 0.9869                10.3149

                    142                    143                    144
                      A                      A                      A
 Frequencies --   3240.0400              3249.4220              3250.6160
 Red. masses --      1.0903                 1.0898                 1.0903
 Frc consts  --      6.7439                 6.7799                 6.7878
 IR Inten    --      4.2998                25.0100                11.8985

 - Thermochemistry -
 -------------------
 Temperature   298.150 Kelvin.  Pressure   1.00000 Atm.
 Atom     1 has atomic number  6 and mass  12.00000

 Molecular mass:   402.14085 amu.
 Principal axes and moments of inertia in atomic units:
                           1         2         3
     Eigenvalues --  4319.48006********************
           X            1.00000   0.00000   0.00031
           Y            0.00000   1.00000   0.00000
           Z           -0.00031   0.00000   1.00000
 This molecule is an asymmetric top.
 Rotational symmetry number  1.
 Warning -- assumption of classical behavior for rotation
           may cause significant error
 Rotational temperatures (Kelvin)      0.02005     0.00322     0.00279
 Rotational constants (GHZ):           0.41781     0.06705     0.05806
 Zero-point vibrational energy    1045734.9 (Joules/Mol)
                                  249.93665 (Kcal/Mol)
 Warning -- explicit consideration of  34 degrees of freedom as
           vibrations may cause significant error
 Vibrational temperatures:     22.39    52.47    70.98   109.50   138.14
          (Kelvin)            155.35   174.26   206.16   259.80   289.45
                              314.19   318.80   394.86   406.80   425.86
                              495.63   504.26   514.45   570.31   595.53
                              609.15   610.34   630.41   671.18   690.09
                              701.83   718.01   748.83   753.85   759.22
                              798.37   819.23   831.95   877.94   906.59
                              906.81   914.49   924.10   934.51   967.97
                              979.77  1056.11  1062.27  1098.59  1099.70
                             1102.54  1122.42  1130.84  1137.50  1144.13
                             1146.05  1155.19  1168.59  1202.34  1224.78
                             1240.88  1261.33  1275.82  1282.32  1296.49
                             1319.29  1335.98  1336.95  1349.13  1357.76
                             1358.57  1401.21  1421.14  1424.76  1427.82
                             1434.21  1444.53  1448.03  1487.16  1488.45
                             1518.21  1573.47  1600.54  1624.03  1639.73
                             1658.13  1665.34  1676.93  1706.82  1730.34
                             1736.82  1755.14  1767.61  1789.57  1812.74
                             1840.22  1859.39  1868.87  1886.55  1893.86
                             1908.46  1924.11  1925.48  1941.49  1942.36
                             1979.91  1985.89  1987.75  2014.02  2086.11
                             2087.27  2105.25  2115.79  2142.65  2152.94
                             2174.47  2200.77  2203.61  2227.83  2228.37
                             2303.31  2333.65  2348.55  2380.67  2384.07
                             2400.17  2410.74  2417.92  2428.70  2455.75
                             2466.55  4579.99  4582.67  4586.97  4593.61
                             4602.50  4608.67  4608.68  4614.44  4623.84
                             4627.23  4629.32  4632.36  4645.76  4649.63
                             4660.62  4661.69  4675.19  4676.91

 Zero-point correction=                           0.398299 (Hartree/Particle)
 Thermal correction to Energy=                    0.419180
 Thermal correction to Enthalpy=                  0.420124
 Thermal correction to Gibbs Free Energy=         0.348297
 Sum of electronic and zero-point Energies=          -1229.915301
 Sum of electronic and thermal Energies=             -1229.894421
 Sum of electronic and thermal Enthalpies=           -1229.893477
 Sum of electronic and thermal Free Energies=        -1229.965304

                     E (Thermal)             CV                S
                      KCal/Mol        Cal/Mol-Kelvin    Cal/Mol-Kelvin
 Total                  263.039             90.196            151.173
 Electronic               0.000              0.000              0.000
 Translational            0.889              2.981             43.866
 Rotational               0.889              2.981             36.534
 Vibrational            261.262             84.234             70.772
 Vibration     1          0.593              1.986              7.132
 Vibration     2          0.594              1.982              5.442
 Vibration     3          0.595              1.978              4.844
 Vibration     4          0.599              1.965              3.989
 Vibration     5          0.603              1.952              3.534
 Vibration     6          0.606              1.943              3.305
 Vibration     7          0.609              1.932              3.082
 Vibration     8          0.616              1.910              2.759
 Vibration     9          0.630              1.866              2.322
 Vibration    10          0.638              1.838              2.122
 Vibration    11          0.646              1.813              1.973
 Vibration    12          0.648              1.808              1.946
 Vibration    13          0.677              1.721              1.568
 Vibration    14          0.682              1.706              1.517
 Vibration    15          0.690              1.681              1.439
 Vibration    16          0.723              1.587              1.191
 Vibration    17          0.727              1.574              1.164
 Vibration    18          0.733              1.560              1.133
 Vibration    19          0.763              1.478              0.976
 Vibration    20          0.778              1.440              0.913
 Vibration    21          0.786              1.419              0.881
 Vibration    22          0.786              1.418              0.878
 Vibration    23          0.798              1.387              0.832
 Vibration    24          0.824              1.324              0.747
 Vibration    25          0.836              1.295              0.711
 Vibration    26          0.844              1.277              0.689
 Vibration    27          0.854              1.252              0.661
 Vibration    28          0.875              1.205              0.609
 Vibration    29          0.879              1.197              0.601
 Vibration    30          0.883              1.189              0.592
 Vibration    31          0.910              1.129              0.534
 Vibration    32          0.925              1.097              0.505
 Vibration    33          0.935              1.078              0.489
 Vibration    34          0.969              1.010              0.432

 Normal termination of Gaussian 09 at Sun Jul 28 08:48:06 2019.
