 Gaussian 09, Revision D.01,
 Gaussian 09:  AM64L-G09RevD.01 24-Apr-2013

 ----------------------------------------------------------------------
 #P wB97XD/def2tzvp opt=(tight) freq integral(Grid=ultrafine) # SCF(Max
 Cycle=380) 5d 7f GFPrint
 ----------------------------------------------------------------------

 ---------------------------------------
 The PBEPBE optimization and frequencies
 ---------------------------------------
 Symbolic Z-matrix:
 Charge =  0 Multiplicity = 1

 SCF Done:  E(RwB97XD) =  -1230.29960185     A.U. after   15 cycles
 SCF Done:  E(RwB97XD) =  -1230.29982148     A.U. after   12 cycles
 SCF Done:  E(RwB97XD) =  -1230.29986659     A.U. after   11 cycles
 SCF Done:  E(RwB97XD) =  -1230.29997272     A.U. after   14 cycles
 SCF Done:  E(RwB97XD) =  -1230.29998844     A.U. after   13 cycles
 SCF Done:  E(RwB97XD) =  -1230.30002763     A.U. after   11 cycles
 SCF Done:  E(RwB97XD) =  -1230.30006644     A.U. after   13 cycles
 SCF Done:  E(RwB97XD) =  -1230.30006977     A.U. after   12 cycles
 SCF Done:  E(RwB97XD) =  -1230.30007200     A.U. after   11 cycles
 SCF Done:  E(RwB97XD) =  -1230.30007203     A.U. after    7 cycles
 SCF Done:  E(RwB97XD) =  -1230.30007202     A.U. after    7 cycles
 SCF Done:  E(RwB97XD) =  -1230.30007203     A.U. after    5 cycles
 SCF Done:  E(RwB97XD) =  -1230.30007203     A.U. after    3 cycles
 SCF Done:  E(RwB97XD) =  -1230.30007203     A.U. after    4 cycles
 Optimization completed.
    -- Stationary point found.
 Normal termination of Gaussian 09 at Tue Jul 30 18:54:57 2019.

 ---------------------------------------------------------------------
 #P Geom=AllCheck Guess=TCheck SCRF=Check GenChk RwB97XD/def2TZVP Freq
 ---------------------------------------------------------------------

 Structure from the checkpoint file:  "m1_00_313-97-3-C32H18_wB97XD.chk"
 ---------------------------------------
 The PBEPBE optimization and frequencies
 ---------------------------------------
 Charge =  0 Multiplicity = 1

                         Standard orientation:
 ---------------------------------------------------------------------
 Center     Atomic      Atomic             Coordinates (Angstroms)
 Number     Number       Type             X           Y           Z
 ---------------------------------------------------------------------
      1          6           0        7.190219   -1.424823   -0.510070
      2          6           0        7.379913   -0.049873   -0.333765
      3          6           0        6.303647    0.778211   -0.128744
      4          6           0        5.921877   -1.941627   -0.478108
      5          6           0        4.805568   -1.109512   -0.271013
      6          6           0        4.991513    0.276833   -0.090836
      7          6           0        3.490608   -1.655399   -0.231808
      8          6           0        2.391737   -0.877434   -0.048299
      9          6           0        0.047781    0.729480    0.185734
     10          6           0       -1.074047    1.458105    0.030321
     11          6           0       -2.391737    0.877434   -0.048299
     12          6           0       -3.490608    1.655399   -0.231808
     13          6           0       -4.991513   -0.276833   -0.090835
     14          6           0       -4.805568    1.109512   -0.271013
     15          6           0       -5.921877    1.941627   -0.478108
     16          6           0       -7.190219    1.424823   -0.510070
     17          6           0       -7.379913    0.049873   -0.333765
     18          6           0       -6.303647   -0.778211   -0.128743
     19          6           0        2.538629    0.545427    0.112591
     20          6           0        3.826169    1.122534    0.120789
     21          6           0        3.933725    2.502995    0.338035
     22          6           0        2.814296    3.271397    0.547730
     23          6           0        1.547992    2.699441    0.520415
     24          6           0        1.385300    1.346570    0.277463
     25          6           0        1.074047   -1.458105    0.030321
     26          6           0       -0.047781   -0.729480    0.185734
     27          6           0       -1.385300   -1.346570    0.277463
     28          6           0       -2.538629   -0.545427    0.112591
     29          6           0       -3.826169   -1.122534    0.120789
     30          6           0       -3.933725   -2.502995    0.338035
     31          6           0       -2.814296   -3.271397    0.547730
     32          6           0       -1.547992   -2.699440    0.520415
     33          1           0        8.041177   -2.074165   -0.671242
     34          1           0        8.379375    0.365184   -0.359582
     35          1           0        6.484891    1.835859    0.000692
     36          1           0        5.759932   -3.004573   -0.613488
     37          1           0        3.374865   -2.727843   -0.344879
     38          1           0       -1.021270    2.535517   -0.060110
     39          1           0       -3.374865    2.727843   -0.344879
     40          1           0       -5.759933    3.004573   -0.613488
     41          1           0       -8.041177    2.074165   -0.671242
     42          1           0       -8.379375   -0.365184   -0.359582
     43          1           0       -6.484891   -1.835859    0.000692
     44          1           0        4.903501    2.978781    0.359371
     45          1           0        2.917597    4.331938    0.738951
     46          1           0        0.688579    3.328261    0.707664
     47          1           0        1.021270   -2.535517   -0.060110
     48          1           0       -4.903500   -2.978781    0.359371
     49          1           0       -2.917596   -4.331938    0.738951
     50          1           0       -0.688579   -3.328260    0.707664
 ---------------------------------------------------------------------

 SCF Done:  E(RwB97XD) =  -1230.30007203     A.U. after    1 cycles

 The electronic state is 1-A.
 Alpha  occ. eigenvalues --  -10.30650 -10.30618 -10.30564 -10.30563 -10.30539
 Alpha  occ. eigenvalues --  -10.30538 -10.30333 -10.30333 -10.30239 -10.30239
 Alpha  occ. eigenvalues --  -10.30136 -10.30136 -10.30036 -10.30036 -10.29226
 Alpha  occ. eigenvalues --  -10.29225 -10.29194 -10.29194 -10.29127 -10.29127
 Alpha  occ. eigenvalues --  -10.29125 -10.29125 -10.29108 -10.29108 -10.29096
 Alpha  occ. eigenvalues --  -10.29096 -10.29080 -10.29080 -10.29021 -10.29021
 Alpha  occ. eigenvalues --  -10.28970 -10.28970  -1.00749  -0.99725  -0.97359
 Alpha  occ. eigenvalues --   -0.96229  -0.94181  -0.93487  -0.91727  -0.89093
 Alpha  occ. eigenvalues --   -0.87552  -0.87515  -0.86571  -0.84520  -0.83766
 Alpha  occ. eigenvalues --   -0.82936  -0.82680  -0.79833  -0.74868  -0.74483
 Alpha  occ. eigenvalues --   -0.73224  -0.72524  -0.72100  -0.71370  -0.69249
 Alpha  occ. eigenvalues --   -0.68489  -0.66935  -0.63893  -0.63356  -0.62515
 Alpha  occ. eigenvalues --   -0.61229  -0.61039  -0.60215  -0.58468  -0.57813
 Alpha  occ. eigenvalues --   -0.56833  -0.56261  -0.55270  -0.54244  -0.53409
 Alpha  occ. eigenvalues --   -0.52568  -0.52152  -0.51723  -0.51597  -0.51508
 Alpha  occ. eigenvalues --   -0.51307  -0.50857  -0.50570  -0.49435  -0.48822
 Alpha  occ. eigenvalues --   -0.48456  -0.47954  -0.47811  -0.47317  -0.46192
 Alpha  occ. eigenvalues --   -0.45313  -0.45216  -0.44896  -0.43845  -0.43095
 Alpha  occ. eigenvalues --   -0.42976  -0.42424  -0.41157  -0.40853  -0.40418
 Alpha  occ. eigenvalues --   -0.39563  -0.37908  -0.36282  -0.35488  -0.35141
 Alpha  occ. eigenvalues --   -0.32314  -0.30902  -0.30287  -0.29980  -0.24046
 Alpha virt. eigenvalues --   -0.03632   0.01310   0.01965   0.03224   0.03996
 Alpha virt. eigenvalues --    0.05910   0.07791   0.07880   0.10659   0.12130
 Alpha virt. eigenvalues --    0.12183   0.12598   0.13142   0.13369   0.13893

 Mulliken charges:
               1
     1  C   -0.109493
     2  C   -0.099784
     3  C   -0.227208
     4  C   -0.187045
     5  C    0.161384
     6  C    0.118059
     7  C   -0.338400
     8  C    0.155943
     9  C    0.139396
    10  C   -0.278618
    11  C    0.155943
    12  C   -0.338400
    13  C    0.118059
    14  C    0.161384
    15  C   -0.187045
    16  C   -0.109493
    17  C   -0.099784
    18  C   -0.227208
    19  C   -0.046672
    20  C    0.160406
    21  C   -0.213499
    22  C   -0.105767
    23  C   -0.181894
    24  C    0.084081
    25  C   -0.278618
    26  C    0.139396
    27  C    0.084081
    28  C   -0.046672
    29  C    0.160406
    30  C   -0.213499
    31  C   -0.105767
    32  C   -0.181894
    33  H    0.117079
    34  H    0.116145
    35  H    0.103253
    36  H    0.110755
    37  H    0.099565
    38  H    0.100243
    39  H    0.099565
    40  H    0.110755
    41  H    0.117079
    42  H    0.116145
    43  H    0.103253
    44  H    0.100543
    45  H    0.112282
    46  H    0.109245
    47  H    0.100243
    48  H    0.100543
    49  H    0.112282
    50  H    0.109245
 Sum of Mulliken charges =   0.00000

 Dipole moment (field-independent basis, Debye):
    X=              0.0000    Y=              0.0000    Z=              0.0161  Tot=              0.0161
 Quadrupole moment (field-independent basis, Debye-Ang):
   XX=           -156.2256   YY=           -157.3172   ZZ=           -193.3004
   XY=              0.5578   XZ=              0.0000   YZ=              0.0000

  Exact polarizability: 874.881 -51.516 385.537   0.000   0.000 168.842
 Approx polarizability: 762.413 -67.792 496.311   0.000   0.000 235.443

                      1                      2                      3
                      A                      A                      A
 Frequencies --     18.7320                40.8730                56.7302
 Red. masses --      5.8407                 4.8892                 4.9033
 Frc consts  --      0.0012                 0.0048                 0.0093
 IR Inten    --      0.0302                 0.3387                 0.0431

                      4                      5                      6
                      A                      A                      A
 Frequencies --     94.6412                96.7729               100.0886
 Red. masses --      4.1011                 4.8278                 4.8732
 Frc consts  --      0.0216                 0.0266                 0.0288
 IR Inten    --      0.7848                 0.0975                 0.3742

                      7                      8                      9
                      A                      A                      A
 Frequencies --    116.1204               173.0773               181.1499
 Red. masses --      4.9446                 4.3056                 4.2662
 Frc consts  --      0.0393                 0.0760                 0.0825
 IR Inten    --      0.8390                 0.2374                 0.0683

                     10                     11                     12
                      A                      A                      A
 Frequencies --    196.5085               221.9978               238.1000
 Red. masses --      6.0754                 4.9683                 4.5521
 Frc consts  --      0.1382                 0.1443                 0.1520
 IR Inten    --      0.0642                 0.6449                 0.0703

                     13                     14                     15
                      A                      A                      A
 Frequencies --    250.6918               258.4220               279.1260
 Red. masses --      4.3233                 4.8707                 4.8612
 Frc consts  --      0.1601                 0.1916                 0.2231
 IR Inten    --      5.8973                 0.0370                 0.9555

                     16                     17                     18
                      A                      A                      A
 Frequencies --    323.9475               333.7333               360.7794
 Red. masses --      5.6094                 3.8549                 4.4429
 Frc consts  --      0.3468                 0.2530                 0.3407
 IR Inten    --      0.1559                 0.0296                 1.0143

                     19                     20                     21
                      A                      A                      A
 Frequencies --    390.8138               398.9054               428.8171
 Red. masses --      4.2295                 6.9100                 5.8954
 Frc consts  --      0.3806                 0.6478                 0.6387
 IR Inten    --      0.0043                 0.6487                 0.0313

                     22                     23                     24
                      A                      A                      A
 Frequencies --    442.7944               451.6632               462.1926
 Red. masses --      4.9372                 3.9308                 3.3994
 Frc consts  --      0.5703                 0.4725                 0.4279
 IR Inten    --      1.3271                 0.4353                 1.4663

                     25                     26                     27
                      A                      A                      A
 Frequencies --    499.4376               509.3329               512.9209
 Red. masses --      3.4485                 3.6228                 4.5345
 Frc consts  --      0.5068                 0.5537                 0.7029
 IR Inten    --      0.0232                 4.5254                 3.5446

                     28                     29                     30
                      A                      A                      A
 Frequencies --    521.7803               541.6693               543.0746
 Red. masses --      5.7024                 7.4741                 3.4166
 Frc consts  --      0.9147                 1.2920                 0.5937
 IR Inten    --      0.7801                 0.2800                 2.1989

                     31                     32                     33
                      A                      A                      A
 Frequencies --    544.7337               557.9022               559.9009
 Red. masses --      3.5846                 6.5410                 5.4872
 Frc consts  --      0.6267                 1.1995                 1.0135
 IR Inten    --      0.3090                 0.0362                 1.1298

                     34                     35                     36
                      A                      A                      A
 Frequencies --    585.8319               596.4160               627.9306
 Red. masses --      6.9308                 4.1909                 7.3310
 Frc consts  --      1.4014                 0.8783                 1.7031
 IR Inten    --     39.2774                 1.3416                 0.1482

                     37                     38                     39
                      A                      A                      A
 Frequencies --    629.8850               648.6347               656.6345
 Red. masses --      3.1026                 3.8301                 6.0485
 Frc consts  --      0.7253                 0.9494                 1.5366
 IR Inten    --      0.2181                 1.5092                 0.1064

                     40                     41                     42
                      A                      A                      A
 Frequencies --    662.6121               684.1631               688.2058
 Red. masses --      3.1309                 6.1545                 6.7164
 Frc consts  --      0.8099                 1.6973                 1.8742
 IR Inten    --      2.4745                 1.4663                 0.0608

                     43                     44                     45
                      A                      A                      A
 Frequencies --    740.8153               769.9940               770.9117
 Red. masses --      4.6879                 2.3685                 1.4530
 Frc consts  --      1.5158                 0.8274                 0.5088
 IR Inten    --      4.2282                14.9097                 0.9003

                     46                     47                     48
                      A                      A                      A
 Frequencies --    771.6455               782.9423               786.1204
 Red. masses --      2.1639                 1.8134                 1.5007
 Frc consts  --      0.7591                 0.6550                 0.5464
 IR Inten    --     42.5047               108.5686                 5.4839

                     49                     50                     51
                      A                      A                      A
 Frequencies --    791.3909               794.5852               794.7076
 Red. masses --      4.7488                 2.6680                 2.1022
 Frc consts  --      1.7523                 0.9925                 0.7823
 IR Inten    --     10.5810                 1.5546                33.2893

                     52                     53                     54
                      A                      A                      A
 Frequencies --    814.0623               829.6688               846.7970
 Red. masses --      5.4369                 5.4284                 5.1388
 Frc consts  --      2.1228                 2.2016                 2.1710
 IR Inten    --      0.2977                 5.2802                 0.0148

                     55                     56                     57
                      A                      A                      A
 Frequencies --    861.3425               868.1453               875.1447
 Red. masses --      1.6629                 2.9056                 1.3990
 Frc consts  --      0.7269                 1.2903                 0.6313
 IR Inten    --      0.7934                 0.6968                 6.3194

                     58                     59                     60
                      A                      A                      A
 Frequencies --    886.6496               896.2401               905.5053
 Red. masses --      2.2944                 4.7478                 1.6843
 Frc consts  --      1.0627                 2.2469                 0.8137
 IR Inten    --      0.2570                 0.9919                 0.2967

                     61                     62                     63
                      A                      A                      A
 Frequencies --    905.7969               926.9966               929.6020
 Red. masses --      2.1231                 2.6672                 2.2141
 Frc consts  --      1.0263                 1.3504                 1.1273
 IR Inten    --      0.0270                 0.3634                 4.6424

                     64                     65                     66
                      A                      A                      A
 Frequencies --    932.3977               934.0090               941.6600
 Red. masses --      1.8315                 2.6352                 1.6943
 Frc consts  --      0.9381                 1.3545                 0.8852
 IR Inten    --      2.4183                 2.7551                44.4150

                     67                     68                     69
                      A                      A                      A
 Frequencies --    947.2158               972.3725               972.5974
 Red. masses --      1.8707                 1.3806                 1.3786
 Frc consts  --      0.9889                 0.7691                 0.7684
 IR Inten    --      0.3784                 3.6359                 0.0222

                     70                     71                     72
                      A                      A                      A
 Frequencies --    991.3481               991.3588               997.7984
 Red. masses --      1.3215                 1.3199                 1.2842
 Frc consts  --      0.7652                 0.7643                 0.7533
 IR Inten    --      0.0138                 1.3495                 0.1167

                     73                     74                     75
                      A                      A                      A
 Frequencies --    997.8701              1046.4928              1071.0494
 Red. masses --      1.2844                 6.5760                 2.5085
 Frc consts  --      0.7536                 4.2431                 1.6955
 IR Inten    --      0.0070                 0.2071                13.2218

                     76                     77                     78
                      A                      A                      A
 Frequencies --   1074.5209              1099.0878              1107.8204
 Red. masses --      2.2774                 3.2277                 2.8538
 Frc consts  --      1.5492                 2.2973                 2.0635
 IR Inten    --      0.0634                 2.2681                 0.0667

                     79                     80                     81
                      A                      A                      A
 Frequencies --   1117.6993              1141.2345              1162.3091
 Red. masses --      3.7675                 2.4123                 1.9496
 Frc consts  --      2.7730                 1.8511                 1.5518
 IR Inten    --      7.9465                 0.0047                 4.2904

                     82                     83                     84
                      A                      A                      A
 Frequencies --   1170.0901              1171.0374              1183.0974
 Red. masses --      1.5057                 1.9361                 1.5805
 Frc consts  --      1.2146                 1.5643                 1.3034
 IR Inten    --      1.6382                 0.1075                 0.1373

                     85                     86                     87
                      A                      A                      A
 Frequencies --   1195.0691              1196.8208              1220.7922
 Red. masses --      1.2707                 1.2283                 1.4650
 Frc consts  --      1.0692                 1.0366                 1.2864
 IR Inten    --      0.0793                 0.0035                 2.7302

                     88                     89                     90
                      A                      A                      A
 Frequencies --   1224.2418              1235.5594              1241.5612
 Red. masses --      1.4609                 1.3964                 1.3358
 Frc consts  --      1.2900                 1.2560                 1.2132
 IR Inten    --      0.0198                 2.9827                 0.0447

                     91                     92                     93
                      A                      A                      A
 Frequencies --   1259.1954              1264.0173              1292.9656
 Red. masses --      2.1596                 2.0510                 2.2258
 Frc consts  --      2.0175                 1.9307                 2.1924
 IR Inten    --      0.1572                 5.7506                 5.7733

                     94                     95                     96
                      A                      A                      A
 Frequencies --   1306.2883              1308.1745              1319.1444
 Red. masses --      1.7425                 2.1793                 1.5632
 Frc consts  --      1.7519                 2.1973                 1.6027
 IR Inten    --      0.0327                 6.7750                 0.4986

                     97                     98                     99
                      A                      A                      A
 Frequencies --   1320.1074              1347.5002              1365.9106
 Red. masses --      2.8453                 2.3902                 3.3741
 Frc consts  --      2.9215                 2.5570                 3.7090
 IR Inten    --      0.0331                 0.0579                 0.7324

                    100                    101                    102
                      A                      A                      A
 Frequencies --   1366.7073              1382.5096              1391.0630
 Red. masses --      5.2382                 3.2891                 4.9721
 Frc consts  --      5.7648                 3.7040                 5.6687
 IR Inten    --      0.0148                 1.0576                 0.0097

                    103                    104                    105
                      A                      A                      A
 Frequencies --   1391.1538              1420.0924              1435.0349
 Red. masses --      4.1592                 3.2990                 2.9571
 Frc consts  --      4.7426                 3.9198                 3.5879
 IR Inten    --      0.1315                 0.1653                35.7223

                    106                    107                    108
                      A                      A                      A
 Frequencies --   1451.4744              1470.2870              1481.6354
 Red. masses --      2.1482                 3.0725                 3.3738
 Frc consts  --      2.6665                 3.9133                 4.3636
 IR Inten    --      0.0409                 2.0002                 0.0373

                    109                    110                    111
                      A                      A                      A
 Frequencies --   1499.0249              1503.8193              1514.8348
 Red. masses --      2.9716                 2.8525                 2.5988
 Frc consts  --      3.9342                 3.8008                 3.5136
 IR Inten    --      2.8311                 0.1511                27.1543

                    112                    113                    114
                      A                      A                      A
 Frequencies --   1518.2014              1546.8530              1547.5449
 Red. masses --      2.9452                 3.6421                 3.7736
 Frc consts  --      3.9996                 5.1345                 5.3247
 IR Inten    --      0.1018                21.8186                 0.6952

                    115                    116                    117
                      A                      A                      A
 Frequencies --   1591.1764              1596.1937              1647.4293
 Red. masses --      4.3197                 4.4323                 6.4326
 Frc consts  --      6.4438                 6.6534                10.2862
 IR Inten    --      1.4139                 0.2478                 8.3785

                    118                    119                    120
                      A                      A                      A
 Frequencies --   1652.4475              1652.6357              1662.5134
 Red. masses --      6.7602                 7.0343                 5.6023
 Frc consts  --     10.8758                11.3195                 9.1231
 IR Inten    --      0.0002                 6.6350                 0.1912

                    121                    122                    123
                      A                      A                      A
 Frequencies --   1672.8545              1673.3638              1689.5681
 Red. masses --      6.1386                 6.6029                 6.0676
 Frc consts  --     10.1212                10.8935                10.2051
 IR Inten    --     11.5541                 0.0174                15.6696

                    124                    125                    126
                      A                      A                      A
 Frequencies --   1689.7629              1707.2031              1712.7497
 Red. masses --      6.4024                 7.3914                 7.9375
 Frc consts  --     10.7706                12.6926                13.7190
 IR Inten    --      0.2402                16.0885                 0.1735

                    127                    128                    129
                      A                      A                      A
 Frequencies --   3184.4131              3184.4302              3190.6506
 Red. masses --      1.0905                 1.0906                 1.0869
 Frc consts  --      6.5155                 6.5157                 6.5191
 IR Inten    --      0.0687                13.0797                 0.0784

                    130                    131                    132
                      A                      A                      A
 Frequencies --   3190.6615              3199.1807              3199.2558
 Red. masses --      1.0869                 1.0879                 1.0878
 Frc consts  --      6.5192                 6.5601                 6.5598
 IR Inten    --      8.1569                22.5698                 0.0613

                    133                    134                    135
                      A                      A                      A
 Frequencies --   3201.8869              3202.0436              3205.6606
 Red. masses --      1.0895                 1.0896                 1.0899
 Frc consts  --      6.5808                 6.5821                 6.5990
 IR Inten    --      0.0755                24.3605                 0.6406

                    136                    137                    138
                      A                      A                      A
 Frequencies --   3205.7380              3216.3225              3216.3357
 Red. masses --      1.0904                 1.0944                 1.0944
 Frc consts  --      6.6021                 6.6701                 6.6704
 IR Inten    --      8.6866                 0.7025                42.4411

                    139                    140                    141
                      A                      A                      A
 Frequencies --   3223.7475              3223.9030              3228.0045
 Red. masses --      1.0929                 1.0930                 1.0947
 Frc consts  --      6.6918                 6.6934                 6.7206
 IR Inten    --     10.5301                 0.0001                17.3586

                    142                    143                    144
                      A                      A                      A
 Frequencies --   3228.0778              3238.8030              3238.8610
 Red. masses --      1.0945                 1.0916                 1.0916
 Frc consts  --      6.7196                 6.7467                 6.7471
 IR Inten    --      0.6896                48.3259                 0.2181

 - Thermochemistry -
 -------------------
 Temperature   298.150 Kelvin.  Pressure   1.00000 Atm.
 Atom     1 has atomic number  6 and mass  12.00000

 Molecular mass:   402.14085 amu.
 Principal axes and moments of inertia in atomic units:
                           1         2         3
     Eigenvalues --  4208.81666********************
           X            1.00000  -0.00039   0.00000
           Y            0.00039   1.00000   0.00000
           Z            0.00000   0.00000   1.00000
 This molecule is an asymmetric top.
 Rotational symmetry number  1.
 Warning -- assumption of classical behavior for rotation
           may cause significant error
 Rotational temperatures (Kelvin)      0.02058     0.00316     0.00276
 Rotational constants (GHZ):           0.42880     0.06579     0.05759
 Zero-point vibrational energy    1045556.1 (Joules/Mol)
                                  249.89391 (Kcal/Mol)
 Warning -- explicit consideration of  35 degrees of freedom as
           vibrations may cause significant error
 Vibrational temperatures:     26.95    58.81    81.62   136.17   139.23
          (Kelvin)            144.01   167.07   249.02   260.63   282.73
                              319.40   342.57   360.69   371.81   401.60
                              466.09   480.17   519.08   562.29   573.94
                              616.97   637.08   649.84   664.99   718.58
                              732.82   737.98   750.72   779.34   781.36
                              783.75   802.70   805.57   842.88   858.11
                              903.45   906.26   933.24   944.75   953.35
                              984.36   990.17  1065.87  1107.85  1109.17
                             1110.22  1126.48  1131.05  1138.63  1143.23
                             1143.41  1171.25  1193.71  1218.35  1239.28
                             1249.07  1259.14  1275.69  1289.49  1302.82
                             1303.24  1333.74  1337.49  1341.51  1343.83
                             1354.84  1362.83  1399.03  1399.35  1426.33
                             1426.34  1435.61  1435.71  1505.67  1541.00
                             1545.99  1581.34  1593.90  1608.12  1641.98
                             1672.30  1683.50  1684.86  1702.21  1719.44
                             1721.96  1756.45  1761.41  1777.69  1786.33
                             1811.70  1818.64  1860.29  1879.46  1882.17
                             1897.95  1899.34  1938.75  1965.24  1966.38
                             1989.12  2001.43  2001.56  2043.19  2064.69
                             2088.35  2115.41  2131.74  2156.76  2163.66
                             2179.51  2184.35  2225.57  2226.57  2289.35
                             2296.56  2370.28  2377.50  2377.77  2391.98
                             2406.86  2407.59  2430.91  2431.19  2456.28
                             2464.26  4581.65  4581.68  4590.63  4590.64
                             4602.90  4603.01  4606.80  4607.02  4612.22
                             4612.34  4627.56  4627.58  4638.25  4638.47
                             4644.37  4644.48  4659.91  4659.99

 Zero-point correction=                           0.398231 (Hartree/Particle)
 Thermal correction to Energy=                    0.419106
 Thermal correction to Enthalpy=                  0.420050
 Thermal correction to Gibbs Free Energy=         0.348716
 Sum of electronic and zero-point Energies=          -1229.901841
 Sum of electronic and thermal Energies=             -1229.880966
 Sum of electronic and thermal Enthalpies=           -1229.880022
 Sum of electronic and thermal Free Energies=        -1229.951356

                     E (Thermal)             CV                S
                      KCal/Mol        Cal/Mol-Kelvin    Cal/Mol-Kelvin
 Total                  262.993             90.319            150.135
 Electronic               0.000              0.000              0.000
 Translational            0.889              2.981             43.866
 Rotational               0.889              2.981             36.535
 Vibrational            261.216             84.357             69.734
 Vibration     1          0.593              1.986              6.764
 Vibration     2          0.594              1.981              5.216
 Vibration     3          0.596              1.975              4.568
 Vibration     4          0.603              1.953              3.562
 Vibration     5          0.603              1.951              3.518
 Vibration     6          0.604              1.949              3.453
 Vibration     7          0.608              1.936              3.164
 Vibration     8          0.627              1.876              2.402
 Vibration     9          0.630              1.865              2.317
 Vibration    10          0.636              1.845              2.166
 Vibration    11          0.648              1.808              1.943
 Vibration    12          0.656              1.782              1.817
 Vibration    13          0.663              1.762              1.726
 Vibration    14          0.667              1.749              1.672
 Vibration    15          0.679              1.712              1.539
 Vibration    16          0.709              1.628              1.290
 Vibration    17          0.715              1.608              1.242
 Vibration    18          0.735              1.553              1.119
 Vibration    19          0.758              1.490              0.997
 Vibration    20          0.765              1.472              0.967
 Vibration    21          0.790              1.408              0.863
 Vibration    22          0.802              1.377              0.818
 Vibration    23          0.810              1.357              0.791
 Vibration    24          0.820              1.334              0.760
 Vibration    25          0.855              1.251              0.660
 Vibration    26          0.864              1.229              0.635
 Vibration    27          0.868              1.221              0.627
 Vibration    28          0.877              1.202              0.606
 Vibration    29          0.897              1.158              0.562
 Vibration    30          0.898              1.155              0.559
 Vibration    31          0.900              1.151              0.555
 Vibration    32          0.913              1.122              0.528
 Vibration    33          0.916              1.118              0.524
 Vibration    34          0.943              1.062              0.475
 Vibration    35          0.954              1.039              0.456

 Optimization completed on the basis of negligible forces.
    -- Stationary point found.
 Normal termination of Gaussian 09 at Wed Jul 31 10:15:32 2019.
