 Gaussian 09, Revision D.01,
 Gaussian 09:  AM64L-G09RevD.01 24-Apr-2013

 ----------------------------------------------------------------------
 #P wB97XD/def2tzvp opt=(tight) freq integral(Grid=ultrafine) # SCF(Max
 Cycle=380) 5d 7f GFPrint
 ----------------------------------------------------------------------

 ---------------------------------------
 The PBEPBE optimization and frequencies
 ---------------------------------------
 Symbolic Z-matrix:
 Charge =  0 Multiplicity = 1

 SCF Done:  E(RwB97XD) =  -194.104185710     A.U. after   13 cycles
 SCF Done:  E(RwB97XD) =  -194.104261224     A.U. after    9 cycles
 SCF Done:  E(RwB97XD) =  -194.104262372     A.U. after    7 cycles
 SCF Done:  E(RwB97XD) =  -194.104262433     A.U. after    7 cycles
 Optimization completed.
    -- Stationary point found.

 1\1\GINC-CN514-05-R\FOpt\RwB97XD\def2TZVP\C5H6\MINENKY\09-Jul-2021\0\\
 #P wB97XD/def2tzvp opt=(tight) freq integral(Grid=ultrafine) # SCF(Max
 Cycle=380) 5d 7f GFPrint\\The PBEPBE optimization and frequencies\\0,1
 \C,0.,0.,1.2108976813\C,-0.0000003768,1.1723456016,0.2801237831\C,0.00
 00003768,-1.1723456016,0.2801237831\C,-0.0000013046,0.7320983762,-0.98
 43298046\C,0.0000013046,-0.7320983762,-0.9843298046\H,0.8766816457,0.0
 00000393,1.8682706901\H,-0.8766816457,-0.000000393,1.8682706901\H,-0.0
 000008113,2.2021475533,0.6055874148\H,0.0000008113,-2.2021475533,0.605

 Normal termination of Gaussian 09 at Fri Jul  9 19:20:52 2021.

 ---------------------------------------------------------------------
 #P Geom=AllCheck Guess=TCheck SCRF=Check GenChk RwB97XD/def2TZVP Freq
 ---------------------------------------------------------------------

 Structure from the checkpoint file:  "m1_00_542-92-70_C5H6_wB97XD.chk"
 ---------------------------------------
 The PBEPBE optimization and frequencies
 ---------------------------------------
 Charge =  0 Multiplicity = 1

                         Standard orientation:
 ---------------------------------------------------------------------
 Center     Atomic      Atomic             Coordinates (Angstroms)
 Number     Number       Type             X           Y           Z
 ---------------------------------------------------------------------
      1          6           0        0.000000    0.000000    1.210469
      2          6           0        0.000000   -1.172346    0.279695
      3          6           0        0.000000    1.172346    0.279695
      4          6           0        0.000001   -0.732098   -0.984759
      5          6           0       -0.000001    0.732098   -0.984759
      6          1           0       -0.876682    0.000000    1.867842
      7          1           0        0.876682    0.000000    1.867842
      8          1           0        0.000000   -2.202148    0.605158
      9          1           0        0.000000    2.202148    0.605158
     10          1           0        0.000002   -1.346797   -1.874020
     11          1           0       -0.000002    1.346797   -1.874020
 ---------------------------------------------------------------------

 SCF Done:  E(RwB97XD) =  -194.104262433     A.U. after    1 cycles

 The electronic state is 1-A.
 Alpha  occ. eigenvalues --  -10.28768 -10.27955 -10.27932 -10.27844 -10.27837
 Alpha  occ. eigenvalues --   -0.96098  -0.80406  -0.80174  -0.64282  -0.62103
 Alpha  occ. eigenvalues --   -0.60631  -0.52615  -0.48197  -0.45907  -0.44119
 Alpha  occ. eigenvalues --   -0.44041  -0.38423  -0.30034
 Alpha virt. eigenvalues --    0.04934   0.12854   0.14284   0.15664   0.16936
 Alpha virt. eigenvalues --    0.18235   0.18259   0.18617   0.22038   0.25130
 Alpha virt. eigenvalues --    0.27246   0.28045   0.28930   0.30792   0.32576

 Mulliken charges:
               1
     1  C   -0.059072
     2  C   -0.219497
     3  C   -0.219497
     4  C   -0.120511
     5  C   -0.120511
     6  H    0.116691
     7  H    0.116691
     8  H    0.128099
     9  H    0.128099
    10  H    0.124754
    11  H    0.124754
 Sum of Mulliken charges =   0.00000

 Dipole moment (field-independent basis, Debye):
    X=              0.0000    Y=              0.0000    Z=              0.4712  Tot=              0.4712
 Quadrupole moment (field-independent basis, Debye-Ang):
   XX=            -32.8558   YY=            -28.6020   ZZ=            -26.9648
   XY=              0.0000   XZ=              0.0000   YZ=              0.0000

  Exact polarizability:  37.017   0.000  59.541   0.000   0.000  65.024
 Approx polarizability:  43.915   0.000  63.525   0.000   0.000  74.839

                      1                      2                      3
                      B                      A                      B
 Frequencies --    348.1695               530.9944               686.5747
 Red. masses --      1.5014                 2.3355                 1.1861
 Frc consts  --      0.1072                 0.3880                 0.3294
 IR Inten    --      7.2742                 0.0000                78.6302

                      4                      5                      6
                      A                      B                      A
 Frequencies --    729.3110               821.9298               821.9979
 Red. masses --      1.2788                 5.4786                 5.0381
 Frc consts  --      0.4007                 2.1807                 2.0057
 IR Inten    --      0.0000                 6.6439                 0.0171

                      7                      8                      9
                      B                      A                      A
 Frequencies --    925.9347               938.2873               973.9993
 Red. masses --      1.7912                 2.0509                 1.3274
 Frc consts  --      0.9048                 1.0638                 0.7419
 IR Inten    --     35.0968                12.2240                 0.0000

                     10                     11                     12
                      B                      B                      A
 Frequencies --    978.7424               981.6912              1021.8776
 Red. masses --      1.3539                 1.5564                 2.5401
 Frc consts  --      0.7642                 0.8837                 1.5628
 IR Inten    --      0.5294                15.1690                 0.2200

                     13                     14                     15
                      B                      A                      A
 Frequencies --   1119.9360              1136.3685              1139.5278
 Red. masses --      1.1202                 1.1459                 1.2694
 Frc consts  --      0.8278                 0.8718                 0.9712
 IR Inten    --      2.0909                 0.0000                 0.1880

                     16                     17                     18
                      B                      B                      A
 Frequencies --   1282.1618              1333.2093              1409.3108
 Red. masses --      1.6012                 1.8073                 1.3633
 Frc consts  --      1.5509                 1.8927                 1.5953
 IR Inten    --      2.3114                 1.3946                27.1121

                     19                     20                     21
                      A                      A                      B
 Frequencies --   1424.7126              1586.7224              1669.6477
 Red. masses --      1.4771                 6.1735                 5.4515
 Frc consts  --      1.7665                 9.1576                 8.9539
 IR Inten    --      1.5097                 1.7554                 0.0279

                     22                     23                     24
                      A                      B                      B
 Frequencies --   3047.1671              3079.8619              3218.4886
 Red. masses --      1.0614                 1.0987                 1.0867
 Frc consts  --      5.8064                 6.1402                 6.6325
 IR Inten    --      7.9389                 4.6894                 2.8134

                     25                     26                     27
                      A                      B                      A
 Frequencies --   3228.1911              3246.2322              3253.0979
 Red. masses --      1.0892                 1.1009                 1.1071
 Frc consts  --      6.6876                 6.8350                 6.9031
 IR Inten    --      9.2673                15.3706                 1.8032

 - Thermochemistry -
 -------------------
 Temperature   298.150 Kelvin.  Pressure   1.00000 Atm.
 Atom     1 has atomic number  6 and mass  12.00000

 Molecular mass:    66.04695 amu.
 Principal axes and moments of inertia in atomic units:
                           1         2         3
     Eigenvalues --   211.09059 217.22351 417.24973
           X            0.00000   0.00000   1.00000
           Y            1.00000   0.00000   0.00000
           Z            0.00000   1.00000   0.00000
 This molecule is an asymmetric top.
 Rotational symmetry number  2.
 Rotational temperatures (Kelvin)      0.41032     0.39873     0.20758
 Rotational constants (GHZ):           8.54961     8.30822     4.32533
 Zero-point vibrational energy     244840.6 (Joules/Mol)
                                   58.51830 (Kcal/Mol)
 Warning -- explicit consideration of   2 degrees of freedom as
           vibrations may cause significant error
 Vibrational temperatures:    500.94   763.98   987.83  1049.31  1182.57
          (Kelvin)           1182.67  1332.21  1349.98  1401.37  1408.19
                             1412.43  1470.25  1611.34  1634.98  1639.52
                             1844.74  1918.19  2027.68  2049.84  2282.94
                             2402.25  4384.19  4431.23  4630.68  4644.64
                             4670.60  4680.48

 Zero-point correction=                           0.093255 (Hartree/Particle)
 Thermal correction to Energy=                    0.097374
 Thermal correction to Enthalpy=                  0.098318
 Thermal correction to Gibbs Free Energy=         0.067338
 Sum of electronic and zero-point Energies=           -194.011008
 Sum of electronic and thermal Energies=              -194.006888
 Sum of electronic and thermal Enthalpies=            -194.005944
 Sum of electronic and thermal Free Energies=         -194.036925

                     E (Thermal)             CV                S
                      KCal/Mol        Cal/Mol-Kelvin    Cal/Mol-Kelvin
 Total                   61.103             15.404             65.205
 Electronic               0.000              0.000              0.000
 Translational            0.889              2.981             38.482
 Rotational               0.889              2.981             23.085
 Vibrational             59.326              9.442              3.638
 Vibration     1          0.726              1.579              1.174
 Vibration     2          0.886              1.181              0.585

 Optimization completed.
    -- Stationary point found.

 1\1\GINC-CN514-05-R\Freq\RwB97XD\def2TZVP\C5H6\MINENKY\09-Jul-2021\0\\
 #P Geom=AllCheck Guess=TCheck SCRF=Check GenChk RwB97XD/def2TZVP Freq\
 \The PBEPBE optimization and frequencies\\0,1\C,0.,0.,1.2108976813\C,-
 0.0000003768,1.1723456016,0.2801237831\C,0.0000003768,-1.1723456016,0.
 2801237831\C,-0.0000013046,0.7320983762,-0.9843298046\C,0.0000013046,-
 0.7320983762,-0.9843298046\H,0.8766816457,0.000000393,1.8682706901\H,-
 0.8766816457,-0.000000393,1.8682706901\H,-0.0000008113,2.2021475533,0.
 6055874148\H,0.0000008113,-2.2021475533,0.6055874148\H,-0.0000021697,1

 Normal termination of Gaussian 09 at Fri Jul  9 19:22:53 2021.
