 Gaussian 09, Revision D.01,
 Gaussian 09:  AM64L-G09RevD.01 24-Apr-2013

 ----------------------------------------------------------------------
 #P wB97XD/def2tzvp opt=(tight) freq integral(Grid=ultrafine) # SCF(Max
 Cycle=380) 5d 7f GFPrint
 ----------------------------------------------------------------------

 ---------------------------------------
 The PBEPBE optimization and frequencies
 ---------------------------------------
 Symbolic Z-matrix:
 Charge =  0 Multiplicity = 1

 SCF Done:  E(RwB97XD) =  -463.312061861     A.U. after   18 cycles
 SCF Done:  E(RwB97XD) =  -463.312270715     A.U. after   10 cycles
 SCF Done:  E(RwB97XD) =  -463.312277242     A.U. after    8 cycles
 SCF Done:  E(RwB97XD) =  -463.312277898     A.U. after    8 cycles
 SCF Done:  E(RwB97XD) =  -463.312277913     A.U. after    5 cycles
 SCF Done:  E(RwB97XD) =  -463.312277914     A.U. after    3 cycles
 Optimization completed.
    -- Stationary point found.
 Normal termination of Gaussian 09 at Fri Jul  9 19:56:13 2021.

 ---------------------------------------------------------------------
 #P Geom=AllCheck Guess=TCheck SCRF=Check GenChk RwB97XD/def2TZVP Freq
 ---------------------------------------------------------------------

 Structure from the checkpoint file:  "m1_00_83-32-9-C12H10_wB97XD.chk"
 ---------------------------------------
 The PBEPBE optimization and frequencies
 ---------------------------------------
 Charge =  0 Multiplicity = 1

                         Standard orientation:
 ---------------------------------------------------------------------
 Center     Atomic      Atomic             Coordinates (Angstroms)
 Number     Number       Type             X           Y           Z
 ---------------------------------------------------------------------
      1          6           0        0.000000   -0.087732    0.000000
      2          6           0       -1.168192   -0.867561   -0.000002
      3          6           0        1.168192   -0.867561    0.000002
      4          6           0        0.000000    1.311739    0.000000
      5          6           0       -0.778843   -2.327771   -0.000007
      6          6           0       -2.379712   -0.237840   -0.000001
      7          6           0        0.778843   -2.327771    0.000007
      8          6           0        2.379712   -0.237840    0.000001
      9          6           0        1.269482    1.939077    0.000000
     10          6           0       -1.269482    1.939077    0.000000
     11          6           0       -2.410756    1.178847    0.000000
     12          6           0        2.410756    1.178847    0.000000
     13          1           0       -1.178521   -2.841407    0.876125
     14          1           0       -1.178502   -2.841391   -0.876158
     15          1           0       -3.309715   -0.793525   -0.000003
     16          1           0        1.178521   -2.841407   -0.876125
     17          1           0        1.178502   -2.841391    0.876158
     18          1           0        3.309715   -0.793525    0.000003
     19          1           0        1.335392    3.020552    0.000000
     20          1           0       -1.335392    3.020552    0.000000
     21          1           0       -3.373652    1.675234    0.000000
     22          1           0        3.373652    1.675234    0.000000
 ---------------------------------------------------------------------

 SCF Done:  E(RwB97XD) =  -463.312277914     A.U. after    1 cycles

 The electronic state is 1-A.
 Alpha  occ. eigenvalues --  -10.29239 -10.29216 -10.29214 -10.29176 -10.29159
 Alpha  occ. eigenvalues --  -10.28698 -10.28698 -10.28309 -10.28308 -10.28288
 Alpha  occ. eigenvalues --  -10.28287 -10.27871  -0.99328  -0.92375  -0.91976
 Alpha  occ. eigenvalues --   -0.84074  -0.82881  -0.81798  -0.74348  -0.71084
 Alpha  occ. eigenvalues --   -0.68931  -0.66844  -0.60031  -0.58992  -0.57117
 Alpha  occ. eigenvalues --   -0.55863  -0.53598  -0.51896  -0.49806  -0.49063
 Alpha  occ. eigenvalues --   -0.47793  -0.47540  -0.46350  -0.44010  -0.43399
 Alpha  occ. eigenvalues --   -0.40993  -0.40898  -0.40463  -0.35967  -0.31786
 Alpha  occ. eigenvalues --   -0.27947
 Alpha virt. eigenvalues --    0.02689   0.04910   0.09237   0.11724   0.13421
 Alpha virt. eigenvalues --    0.13525   0.15481   0.16076   0.16434   0.16861
 Alpha virt. eigenvalues --    0.18298   0.19315   0.19927   0.20962   0.21488

 Mulliken charges:
               1
     1  C    0.055274
     2  C   -0.023969
     3  C   -0.023969
     4  C    0.095688
     5  C   -0.098397
     6  C   -0.218515
     7  C   -0.098397
     8  C   -0.218515
     9  C   -0.220551
    10  C   -0.220551
    11  C   -0.052272
    12  C   -0.052272
    13  H    0.106160
    14  H    0.106159
    15  H    0.106274
    16  H    0.106160
    17  H    0.106159
    18  H    0.106274
    19  H    0.105606
    20  H    0.105606
    21  H    0.114022
    22  H    0.114022
 Sum of Mulliken charges =   0.00000

 Dipole moment (field-independent basis, Debye):
    X=              0.0000    Y=             -0.9411    Z=              0.0000  Tot=              0.9411
 Quadrupole moment (field-independent basis, Debye-Ang):
   XX=            -63.9674   YY=            -62.1772   ZZ=            -73.9208
   XY=              0.0000   XZ=              0.0000   YZ=              0.0000

  Exact polarizability: 173.610   0.000 151.671   0.000   0.000  73.332
 Approx polarizability: 199.088   0.000 173.785   0.000   0.000  95.209

                      1                      2                      3
                      A                      A                      A
 Frequencies --     81.6219               163.1899               222.1270
 Red. masses --      1.7691                 3.9731                 3.0853
 Frc consts  --      0.0069                 0.0623                 0.0897
 IR Inten    --      0.0000                 1.8256                 9.2125

                      4                      5                      6
                      A                      A                      A
 Frequencies --    238.7695               427.6777               454.9477
 Red. masses --      3.2419                 4.2608                 3.4814
 Frc consts  --      0.1089                 0.4592                 0.4245
 IR Inten    --      0.0000                 1.5437                 0.0000

                      7                      8                      9
                      A                      A                      A
 Frequencies --    459.3453               481.0616               515.1216
 Red. masses --      3.7113                 3.2416                 7.3018
 Frc consts  --      0.4614                 0.4420                 1.1416
 IR Inten    --      0.5985                 0.2033                 0.0947

                     10                     11                     12
                      A                      A                      A
 Frequencies --    557.1030               575.4951               641.5290
 Red. masses --      6.7072                 2.5925                 3.2805
 Frc consts  --      1.2265                 0.5059                 0.7955
 IR Inten    --      1.0048                 1.2615                 0.0000

                     13                     14                     15
                      A                      A                      A
 Frequencies --    655.5454               670.2249               772.4799
 Red. masses --      5.3226                 5.9833                 1.1753
 Frc consts  --      1.3477                 1.5836                 0.4132
 IR Inten    --      0.0075                 3.8998                 0.0000

                     16                     17                     18
                      A                      A                      A
 Frequencies --    776.9465               814.3139               822.8181
 Red. masses --      1.8017                 1.3598                 5.1360
 Frc consts  --      0.6408                 0.5313                 2.0487
 IR Inten    --      6.6136                86.3753                 0.7218

                     19                     20                     21
                      A                      A                      A
 Frequencies --    846.2457               877.5601               905.8838
 Red. masses --      4.5320                 2.6675                 1.3277
 Frc consts  --      1.9122                 1.2103                 0.6419
 IR Inten    --      0.7764                11.5345                 0.0000

                     22                     23                     24
                      A                      A                      A
 Frequencies --    933.2676               970.9378               988.1093
 Red. masses --      1.4401                 3.0334                 1.2991
 Frc consts  --      0.7390                 1.6848                 0.7473
 IR Inten    --      0.3377                 0.4612                 0.0000

                     25                     26                     27
                      A                      A                      A
 Frequencies --    995.2607              1031.9134              1034.5596
 Red. masses --      1.3003                 4.3804                 1.9679
 Frc consts  --      0.7589                 2.7482                 1.2410
 IR Inten    --      0.6666                 0.5640                 0.0000

                     28                     29                     30
                      A                      A                      A
 Frequencies --   1045.1898              1077.0235              1119.9955
 Red. masses --      2.9212                 1.8715                 2.6215
 Frc consts  --      1.8802                 1.2790                 1.9374
 IR Inten    --      5.2003                 0.1494                 1.7623

                     31                     32                     33
                      A                      A                      A
 Frequencies --   1182.0302              1183.8382              1209.6457
 Red. masses --      1.4510                 1.1771                 1.2162
 Frc consts  --      1.1945                 0.9720                 1.0485
 IR Inten    --      0.5066                 0.0042                 2.6662

                     34                     35                     36
                      A                      A                      A
 Frequencies --   1247.6285              1252.5589              1253.7463
 Red. masses --      1.5253                 1.0990                 2.0555
 Frc consts  --      1.3988                 1.0159                 1.9036
 IR Inten    --      0.6594                 0.0000                 0.0099

                     37                     38                     39
                      A                      A                      A
 Frequencies --   1257.1293              1297.4277              1317.9880
 Red. masses --      1.3145                 2.2968                 1.7497
 Frc consts  --      1.2239                 2.2780                 1.7907
 IR Inten    --      0.4435                 0.6043                 1.1139

                     40                     41                     42
                      A                      A                      A
 Frequencies --   1400.8796              1415.5684              1465.5686
 Red. masses --      2.9150                 3.2600                 2.1523
 Frc consts  --      3.3705                 3.8489                 2.7237
 IR Inten    --      0.8360                18.1547                 0.8646

                     43                     44                     45
                      A                      A                      A
 Frequencies --   1475.9867              1485.1398              1502.9244
 Red. masses --      1.1002                 3.1253                 1.1939
 Frc consts  --      1.4122                 4.0613                 1.5888
 IR Inten    --      2.8081                 1.3997                 4.7593

                     46                     47                     48
                      A                      A                      A
 Frequencies --   1523.3100              1559.9967              1671.8009
 Red. masses --      2.9636                 4.2919                 5.9002
 Frc consts  --      4.0518                 6.1538                 9.7159
 IR Inten    --      1.7287                 4.3413                 4.2863

                     49                     50                     51
                      A                      A                      A
 Frequencies --   1681.0006              1702.4872              3069.9958
 Red. masses --      8.3023                 7.3501                 1.0601
 Frc consts  --     13.8224                12.5519                 5.8867
 IR Inten    --     23.0301                11.2577                16.0746

                     52                     53                     54
                      A                      A                      A
 Frequencies --   3080.4184              3101.5406              3121.0411
 Red. masses --      1.0613                 1.1054                 1.1041
 Frc consts  --      5.9335                 6.2649                 6.3368
 IR Inten    --     39.1660                 0.0000                20.2795

                     55                     56                     57
                      A                      A                      A
 Frequencies --   3186.9149              3187.1230              3198.4606
 Red. masses --      1.0861                 1.0863                 1.0916
 Frc consts  --      6.4993                 6.5012                 6.5798
 IR Inten    --      1.2193                 0.2741                 4.8399

                     58                     59                     60
                      A                      A                      A
 Frequencies --   3198.6669              3211.2515              3211.9149
 Red. masses --      1.0914                 1.0967                 1.0963
 Frc consts  --      6.5791                 6.6633                 6.6634
 IR Inten    --     26.3625                34.0570                 9.1607

 - Thermochemistry -
 -------------------
 Temperature   298.150 Kelvin.  Pressure   1.00000 Atm.
 Atom     1 has atomic number  6 and mass  12.00000

 Molecular mass:   154.07825 amu.
 Principal axes and moments of inertia in atomic units:
                           1         2         3
     Eigenvalues --  1266.569381495.176642739.64451
           X            1.00000   0.00000   0.00000
           Y            0.00000   1.00000   0.00000
           Z            0.00000   0.00000   1.00000
 This molecule is an asymmetric top.
 Rotational symmetry number  1.
 Warning -- assumption of classical behavior for rotation
           may cause significant error
 Rotational temperatures (Kelvin)      0.06838     0.05793     0.03161
 Rotational constants (GHZ):           1.42491     1.20704     0.65875
 Zero-point vibrational energy     483352.6 (Joules/Mol)
                                  115.52405 (Kcal/Mol)
 Warning -- explicit consideration of  11 degrees of freedom as
           vibrations may cause significant error
 Vibrational temperatures:    117.44   234.79   319.59   343.54   615.33
          (Kelvin)            654.57   660.89   692.14   741.14   801.55
                              828.01   923.02   943.18   964.30  1111.42
                             1117.85  1171.61  1183.85  1217.56  1262.61
                             1303.36  1342.76  1396.96  1421.67  1431.96
                             1484.69  1488.50  1503.79  1549.59  1611.42
                             1700.68  1703.28  1740.41  1795.06  1802.15
                             1803.86  1808.73  1866.71  1896.29  2015.55
                             2036.68  2108.62  2123.61  2136.78  2162.37
                             2191.70  2244.48  2405.35  2418.58  2449.50
                             4417.03  4432.03  4462.42  4490.48  4585.25
                             4585.55  4601.87  4602.16  4620.27  4621.22

 Zero-point correction=                           0.184099 (Hartree/Particle)
 Thermal correction to Energy=                    0.192343
 Thermal correction to Enthalpy=                  0.193287
 Thermal correction to Gibbs Free Energy=         0.150744
 Sum of electronic and zero-point Energies=           -463.128179
 Sum of electronic and thermal Energies=              -463.119935
 Sum of electronic and thermal Enthalpies=            -463.118990
 Sum of electronic and thermal Free Energies=         -463.161534

                     E (Thermal)             CV                S
                      KCal/Mol        Cal/Mol-Kelvin    Cal/Mol-Kelvin
 Total                  120.697             34.795             89.541
 Electronic               0.000              0.000              0.000
 Translational            0.889              2.981             41.007
 Rotational               0.889              2.981             30.029
 Vibrational            118.920             28.834             18.504
 Vibration     1          0.600              1.962              3.851
 Vibration     2          0.623              1.888              2.512
 Vibration     3          0.648              1.807              1.942
 Vibration     4          0.657              1.781              1.812
 Vibration     5          0.789              1.410              0.866
 Vibration     6          0.813              1.350              0.781
 Vibration     7          0.817              1.340              0.768
 Vibration     8          0.837              1.292              0.707
 Vibration     9          0.870              1.216              0.621
 Vibration    10          0.913              1.124              0.530
 Vibration    11          0.932              1.084              0.494

 Optimization completed.
    -- Stationary point found.
 Normal termination of Gaussian 09 at Fri Jul  9 20:37:27 2021.
