 Gaussian 09, Revision D.01,
 Gaussian 09:  AM64L-G09RevD.01 24-Apr-2013

 ----------------------------------------------------------------------
 #P wB97XD/def2tzvp opt=(tight) freq integral(Grid=ultrafine) # SCF(Max
 Cycle=380) 5d 7f GFPrint
 ----------------------------------------------------------------------

 ---------------------------------------
 The PBEPBE optimization and frequencies
 ---------------------------------------
 Symbolic Z-matrix:
 Charge =  0 Multiplicity = 1

 SCF Done:  E(RwB97XD) =  -1229.13732967     A.U. after   15 cycles
 SCF Done:  E(RwB97XD) =  -1229.14395672     A.U. after   13 cycles
 SCF Done:  E(RwB97XD) =  -1229.14433875     A.U. after   12 cycles
 SCF Done:  E(RwB97XD) =  -1229.14434723     A.U. after    9 cycles
 SCF Done:  E(RwB97XD) =  -1229.14434787     A.U. after    8 cycles
 SCF Done:  E(RwB97XD) =  -1229.14434795     A.U. after    6 cycles
 SCF Done:  E(RwB97XD) =  -1229.14434797     A.U. after    4 cycles
 SCF Done:  E(RwB97XD) =  -1229.14434796     A.U. after    3 cycles
 Optimization completed.
    -- Stationary point found.
 Normal termination of Gaussian 09 at Sat Jul 27 15:01:38 2019.

 ---------------------------------------------------------------------
 #P Geom=AllCheck Guess=TCheck SCRF=Check GenChk RwB97XD/def2TZVP Freq
 ---------------------------------------------------------------------

 Structure from the checkpoint file:  "m1_00_109278-09-3-C32H16_wB97XD.chk"
 ---------------------------------------
 The PBEPBE optimization and frequencies
 ---------------------------------------
 Charge =  0 Multiplicity = 1

                         Standard orientation:
 ---------------------------------------------------------------------
 Center     Atomic      Atomic             Coordinates (Angstroms)
 Number     Number       Type             X           Y           Z
 ---------------------------------------------------------------------
      1          6           0       -1.312850    4.112131    0.000000
      2          6           0       -2.690152    3.877079    0.000000
      3          6           0       -3.168894    2.597104    0.000000
      4          6           0       -2.276084    1.508814    0.000000
      5          6           0       -2.755899    0.184929    0.000000
      6          6           0        2.301623   -0.226922    0.000000
      7          6           0        3.703437    0.031086    0.000000
      8          6           0        4.191807    1.290013    0.000000
      9          6           0        3.321190    2.412220    0.000000
     10          6           0        3.827787    3.719549    0.000000
     11          6           0        2.971460    4.789337    0.000000
     12          6           0        1.594129    4.581197    0.000000
     13          6           0        1.420707    0.851071    0.000000
     14          6           0        1.924279    2.192529    0.000000
     15          6           0        1.049824    3.308615    0.000000
     16          6           0       -0.398749    3.077084    0.000000
     17          6           0       -0.882033    1.740597    0.000000
     18          6           0        0.000000    0.624610    0.000000
     19          6           0        1.787274   -1.578888    0.000000
     20          6           0        0.779264   -4.182175    0.000000
     21          6           0        2.149291   -3.964720    0.000000
     22          6           0        2.646164   -2.686988    0.000000
     23          6           0       -0.115919   -3.126587    0.000000
     24          6           0        0.389480   -1.799420    0.000000
     25          6           0       -0.508023   -0.680839    0.000000
     26          6           0       -1.924321   -0.899109    0.000000
     27          6           0       -1.566676   -3.358501    0.000000
     28          6           0       -2.450131   -2.270965    0.000000
     29          6           0       -3.829300   -2.523883    0.000000
     30          6           0       -4.330603   -3.803606    0.000000
     31          6           0       -3.454180   -4.883301    0.000000
     32          6           0       -2.098579   -4.656286    0.000000
     33          1           0       -0.974371    5.138134    0.000000
     34          1           0       -3.373262    4.716835    0.000000
     35          1           0       -4.234704    2.403155    0.000000
     36          1           0       -3.829025    0.059931    0.000000
     37          1           0        4.403882   -0.789752    0.000000
     38          1           0        5.261450    1.462012    0.000000
     39          1           0        4.900825    3.868298    0.000000
     40          1           0        3.358584    5.800243    0.000000
     41          1           0        0.950126    5.448609    0.000000
     42          1           0        0.427093   -5.202386    0.000000
     43          1           0        2.826842   -4.808911    0.000000
     44          1           0        3.716626   -2.551829    0.000000
     45          1           0       -4.531694   -1.703790    0.000000
     46          1           0       -5.400864   -3.965286    0.000000
     47          1           0       -3.832547   -5.897429    0.000000
     48          1           0       -1.440872   -5.512491    0.000000
 ---------------------------------------------------------------------

 SCF Done:  E(RwB97XD) =  -1229.14434796     A.U. after    1 cycles

 The electronic state is 1-A'.
 Alpha  occ. eigenvalues --  -10.30559 -10.30550 -10.30533 -10.30523 -10.30512
 Alpha  occ. eigenvalues --  -10.30501 -10.30491 -10.30483 -10.30457 -10.30447
 Alpha  occ. eigenvalues --  -10.30436 -10.30412 -10.30332 -10.30208 -10.30029
 Alpha  occ. eigenvalues --  -10.30010 -10.29167 -10.29150 -10.29139 -10.29102
 Alpha  occ. eigenvalues --  -10.29087 -10.29086 -10.29078 -10.29061 -10.29042
 Alpha  occ. eigenvalues --  -10.29037 -10.29034 -10.29029 -10.28982 -10.28970
 Alpha  occ. eigenvalues --  -10.28960 -10.28927  -1.01643  -0.99271  -0.98086
 Alpha  occ. eigenvalues --   -0.96727  -0.94701  -0.93225  -0.91940  -0.89304
 Alpha  occ. eigenvalues --   -0.88745  -0.87781  -0.85573  -0.85276  -0.83589
 Alpha  occ. eigenvalues --   -0.82828  -0.82669  -0.79982  -0.75169  -0.74331
 Alpha  occ. eigenvalues --   -0.73791  -0.73350  -0.72451  -0.71076  -0.68962
 Alpha  occ. eigenvalues --   -0.67133  -0.66741  -0.64477  -0.64259  -0.62503
 Alpha  occ. eigenvalues --   -0.61650  -0.60607  -0.59113  -0.58082  -0.57517
 Alpha  occ. eigenvalues --   -0.56724  -0.55998  -0.55213  -0.53976  -0.53623
 Alpha  occ. eigenvalues --   -0.52952  -0.52902  -0.51632  -0.51464  -0.50920
 Alpha  occ. eigenvalues --   -0.50742  -0.50240  -0.50010  -0.49846  -0.49322
 Alpha  occ. eigenvalues --   -0.48499  -0.47076  -0.46809  -0.46775  -0.45432
 Alpha  occ. eigenvalues --   -0.45119  -0.44892  -0.44258  -0.44206  -0.42576
 Alpha  occ. eigenvalues --   -0.42395  -0.42069  -0.41227  -0.39788  -0.39270
 Alpha  occ. eigenvalues --   -0.37867  -0.36737  -0.36086  -0.33929  -0.33391
 Alpha  occ. eigenvalues --   -0.31286  -0.30282  -0.29077  -0.25155
 Alpha virt. eigenvalues --   -0.02553   0.01264   0.01729   0.02707   0.04580
 Alpha virt. eigenvalues --    0.04835   0.08248   0.09499   0.10210   0.11998
 Alpha virt. eigenvalues --    0.12308   0.12494   0.13689   0.13694   0.13807

 Mulliken charges:
               1
     1  C   -0.180432
     2  C   -0.083011
     3  C   -0.229599
     4  C    0.210620
     5  C   -0.341725
     6  C    0.167577
     7  C   -0.226973
     8  C   -0.196105
     9  C    0.180388
    10  C   -0.188613
    11  C   -0.083329
    12  C   -0.186756
    13  C   -0.017597
    14  C   -0.058558
    15  C    0.079474
    16  C    0.095653
    17  C   -0.014934
    18  C    0.056811
    19  C    0.129259
    20  C   -0.192502
    21  C   -0.098048
    22  C   -0.211102
    23  C    0.133430
    24  C   -0.096671
    25  C   -0.019594
    26  C    0.214636
    27  C    0.056916
    28  C    0.039686
    29  C   -0.171963
    30  C   -0.106074
    31  C   -0.099977
    32  C   -0.196405
    33  H    0.095899
    34  H    0.111121
    35  H    0.106020
    36  H    0.086403
    37  H    0.093365
    38  H    0.101169
    39  H    0.108315
    40  H    0.112648
    41  H    0.097111
    42  H    0.092533
    43  H    0.109381
    44  H    0.096234
    45  H    0.099629
    46  H    0.114556
    47  H    0.114916
    48  H    0.096217
 Sum of Mulliken charges =   0.00000

 Dipole moment (field-independent basis, Debye):
    X=             -0.0080    Y=             -0.0030    Z=              0.0000  Tot=              0.0085
 Quadrupole moment (field-independent basis, Debye-Ang):
   XX=           -154.7929   YY=           -153.8864   ZZ=           -191.8366
   XY=              0.5137   XZ=              0.0000   YZ=              0.0000

  Exact polarizability: 490.179  38.932 559.957   0.000   0.000 154.230
 Approx polarizability: 570.046  -4.085 616.792   0.000   0.000 221.630

                      1                      2                      3
                     A"                     A"                     A"
 Frequencies --     10.6748                44.4838                58.5126
 Red. masses --      5.3053                 4.7554                 4.0157
 Frc consts  --      0.0004                 0.0055                 0.0081
 IR Inten    --      0.0060                 0.0749                 0.0609

                      4                      5                      6
                     A"                     A"                     A"
 Frequencies --     84.6235               101.3131               138.1458
 Red. masses --      4.4169                 5.0047                 4.0593
 Frc consts  --      0.0186                 0.0303                 0.0456
 IR Inten    --      0.7984                 2.2667                 0.4799

                      7                      8                      9
                     A"                     A"                     A'
 Frequencies --    180.2052               185.6562               194.4028
 Red. masses --      4.6391                 3.8682                 5.4605
 Frc consts  --      0.0888                 0.0786                 0.1216
 IR Inten    --      0.7130                 0.3714                 0.4313

                     10                     11                     12
                     A"                     A'                     A"
 Frequencies --    238.6377               276.4884               278.3734
 Red. masses --      4.1581                 7.1228                 4.1860
 Frc consts  --      0.1395                 0.3208                 0.1911
 IR Inten    --      0.0683                 0.3662                 0.5445

                     13                     14                     15
                     A'                     A"                     A'
 Frequencies --    305.2062               309.3741               326.0678
 Red. masses --      5.5305                 4.3682                 5.5521
 Frc consts  --      0.3035                 0.2463                 0.3478
 IR Inten    --      0.0654                 0.1525                 0.2942

                     16                     17                     18
                     A"                     A'                     A"
 Frequencies --    337.0482               339.2694               362.1558
 Red. masses --      4.7599                 6.9070                 5.7661
 Frc consts  --      0.3186                 0.4684                 0.4456
 IR Inten    --      0.0500                 0.1587                 2.4444

                     19                     20                     21
                     A'                     A'                     A"
 Frequencies --    407.2685               431.6258               446.0953
 Red. masses --      7.5308                 7.0064                 3.9145
 Frc consts  --      0.7360                 0.7691                 0.4590
 IR Inten    --      0.1005                 0.4869                 1.1452

                     22                     23                     24
                     A"                     A'                     A"
 Frequencies --    452.5620               454.0596               494.3381
 Red. masses --      3.5129                 6.5756                 3.8223
 Frc consts  --      0.4239                 0.7987                 0.5503
 IR Inten    --      0.6192                 0.1620                 0.7939

                     25                     26                     27
                     A'                     A"                     A'
 Frequencies --    504.1946               529.9384               533.0519
 Red. masses --      4.9752                 3.6206                 5.4693
 Frc consts  --      0.7452                 0.5991                 0.9156
 IR Inten    --      0.1472                 1.5097                 4.4905

                     28                     29                     30
                     A"                     A"                     A'
 Frequencies --    549.8145               566.2297               568.0207
 Red. masses --      3.6363                 3.8771                 6.7228
 Frc consts  --      0.6477                 0.7324                 1.2780
 IR Inten    --      1.0173                 6.9557                 1.0782

                     31                     32                     33
                     A"                     A'                     A'
 Frequencies --    571.9998               575.3302               599.6234
 Red. masses --      3.3477                 7.1274                 7.2378
 Frc consts  --      0.6453                 1.3900                 1.5333
 IR Inten    --      1.9350                 0.6694                 1.2145

                     34                     35                     36
                     A"                     A'                     A"
 Frequencies --    617.9890               628.0837               634.4317
 Red. masses --      4.4085                 7.5196                 3.3743
 Frc consts  --      0.9920                 1.7478                 0.8002
 IR Inten    --      0.3264                 8.6787                 2.3674

                     37                     38                     39
                     A'                     A'                     A"
 Frequencies --    646.7189               674.4823               677.3822
 Red. masses --      8.0049                 6.2169                 3.7096
 Frc consts  --      1.9726                 1.6663                 1.0029
 IR Inten    --      0.1342                 5.0241                 0.8188

                     40                     41                     42
                     A'                     A'                     A"
 Frequencies --    680.2159               704.7289               711.3275
 Red. masses --      6.1434                 6.2634                 2.4699
 Frc consts  --      1.6748                 1.8327                 0.7363
 IR Inten    --      1.0750                 1.0305                 0.2087

                     43                     44                     45
                     A"                     A'                     A"
 Frequencies --    731.3111               771.1420               774.8161
 Red. masses --      2.2133                 6.1505                 2.1994
 Frc consts  --      0.6974                 2.1549                 0.7780
 IR Inten    --      0.1504                 1.7067                17.9546

                     46                     47                     48
                     A"                     A"                     A"
 Frequencies --    781.3603               783.1692               787.4349
 Red. masses --      1.5711                 1.5752                 1.3202
 Frc consts  --      0.5651                 0.5692                 0.4823
 IR Inten    --     58.9022                46.3349                18.7954

                     49                     50                     51
                     A'                     A"                     A'
 Frequencies --    807.4119               810.1680               823.4688
 Red. masses --      6.1462                 2.3619                 6.7959
 Frc consts  --      2.3608                 0.9134                 2.7151
 IR Inten    --      0.1375                 4.3460                 3.9616

                     52                     53                     54
                     A"                     A"                     A"
 Frequencies --    835.4229               849.6283               869.8715
 Red. masses --      2.0968                 3.2742                 2.1917
 Frc consts  --      0.8622                 1.3925                 0.9771
 IR Inten    --     48.9037                15.2089                 1.9515

                     55                     56                     57
                     A'                     A"                     A"
 Frequencies --    882.4443               888.4797               895.3316
 Red. masses --      6.9379                 3.8474                 1.7399
 Frc consts  --      3.1831                 1.7894                 0.8217
 IR Inten    --      1.9338                 3.2530                11.3197

                     58                     59                     60
                     A"                     A'                     A"
 Frequencies --    907.7417               916.0573               918.7508
 Red. masses --      1.5116                 6.4701                 1.8277
 Frc consts  --      0.7339                 3.1990                 0.9090
 IR Inten    --      1.3783                 1.2075                 1.1505

                     61                     62                     63
                     A'                     A"                     A"
 Frequencies --    925.3037               929.6422               936.8428
 Red. masses --      6.4280                 2.4789                 2.0514
 Frc consts  --      3.2426                 1.2622                 1.0608
 IR Inten    --      4.5724                 0.0254                 3.5064

                     64                     65                     66
                     A"                     A"                     A"
 Frequencies --    962.0126               971.6812               983.5858
 Red. masses --      1.3566                 1.3310                 1.2949
 Frc consts  --      0.7397                 0.7404                 0.7381
 IR Inten    --      0.1522                 1.1539                 0.0000

                     67                     68                     69
                     A"                     A'                     A"
 Frequencies --    988.5331               988.8886               990.9899
 Red. masses --      1.3096                 5.8888                 1.2783
 Frc consts  --      0.7540                 3.3929                 0.7396
 IR Inten    --      0.0041                 2.0465                 0.0044

                     70                     71                     72
                     A"                     A'                     A'
 Frequencies --    993.4033              1036.2852              1058.5140
 Red. masses --      1.2985                 4.3300                 6.7655
 Frc consts  --      0.7550                 2.7397                 4.4663
 IR Inten    --      0.5935                 0.4155                 2.3933

                     73                     74                     75
                     A'                     A'                     A'
 Frequencies --   1072.8835              1093.2735              1115.5970
 Red. masses --      5.6712                 1.9576                 2.2510
 Frc consts  --      3.8462                 1.3786                 1.6506
 IR Inten    --      2.7365                 3.8746                 1.7552

                     76                     77                     78
                     A'                     A'                     A'
 Frequencies --   1128.2696              1145.2916              1149.4123
 Red. masses --      2.4783                 1.9151                 2.0132
 Frc consts  --      1.8588                 1.4801                 1.5670
 IR Inten    --      8.5976                 1.9666                 2.5528

                     79                     80                     81
                     A'                     A'                     A'
 Frequencies --   1176.1433              1185.3883              1193.5055
 Red. masses --      1.8056                 1.4325                 1.7950
 Frc consts  --      1.4716                 1.1860                 1.5065
 IR Inten    --      0.9371                 0.4911                 3.0408

                     82                     83                     84
                     A'                     A'                     A'
 Frequencies --   1201.4279              1204.8032              1224.9740
 Red. masses --      1.3301                 1.5205                 1.5715
 Frc consts  --      1.1311                 1.3004                 1.3894
 IR Inten    --      3.4768                 0.7574                 0.8329

                     85                     86                     87
                     A'                     A'                     A'
 Frequencies --   1234.7245              1237.5731              1260.3412
 Red. masses --      1.7212                 1.5668                 1.7752
 Frc consts  --      1.5460                 1.4138                 1.6614
 IR Inten    --      2.4484                 0.2742                 1.4509

                     88                     89                     90
                     A'                     A'                     A'
 Frequencies --   1262.7352              1283.6408              1301.4975
 Red. masses --      1.6526                 2.0179                 3.2218
 Frc consts  --      1.5526                 1.9590                 3.2154
 IR Inten    --      1.6780                 3.7086                 0.2284

                     91                     92                     93
                     A'                     A'                     A'
 Frequencies --   1309.0124              1333.7694              1338.1198
 Red. masses --      2.1618                 2.5281                 2.6374
 Frc consts  --      2.1825                 2.6497                 2.7824
 IR Inten    --      2.8128                 5.9211                 2.8280

                     94                     95                     96
                     A'                     A'                     A'
 Frequencies --   1359.9076              1363.5438              1368.2535
 Red. masses --      2.9603                 3.5775                 3.4529
 Frc consts  --      3.2256                 3.9189                 3.8086
 IR Inten    --     11.6598                 3.3235                 7.7722

                     97                     98                     99
                     A'                     A'                     A'
 Frequencies --   1373.8171              1386.5922              1405.3914
 Red. masses --      4.0680                 4.2677                 5.4389
 Frc consts  --      4.5236                 4.8343                 6.3293
 IR Inten    --      4.2949                 5.5658                 3.9012

                    100                    101                    102
                     A'                     A'                     A'
 Frequencies --   1429.7326              1433.2164              1440.3150
 Red. masses --      3.9333                 4.9013                 2.9489
 Frc consts  --      4.7371                 5.9317                 3.6044
 IR Inten    --      0.2316                 3.1531                 4.7992

                    103                    104                    105
                     A'                     A'                     A'
 Frequencies --   1457.5689              1465.1865              1489.8189
 Red. masses --      3.5726                 3.3341                 3.0520
 Frc consts  --      4.4719                 4.2171                 3.9912
 IR Inten    --     10.3928                 1.0516                 8.2149

                    106                    107                    108
                     A'                     A'                     A'
 Frequencies --   1497.6938              1518.8428              1527.8408
 Red. masses --      2.9089                 3.5329                 3.3212
 Frc consts  --      3.8444                 4.8018                 4.5677
 IR Inten    --      6.1652                 3.4694                 3.9299

                    109                    110                    111
                     A'                     A'                     A'
 Frequencies --   1532.0477              1542.5465              1567.1196
 Red. masses --      3.0449                 3.2981                 3.8260
 Frc consts  --      4.2109                 4.6237                 5.5360
 IR Inten    --      3.5978                23.3518                 3.9054

                    112                    113                    114
                     A'                     A'                     A'
 Frequencies --   1575.9619              1602.5248              1645.9675
 Red. masses --      4.4256                 5.3602                 5.4046
 Frc consts  --      6.4761                 8.1103                 8.6269
 IR Inten    --      1.5615                 1.3932                 1.3018

                    115                    116                    117
                     A'                     A'                     A'
 Frequencies --   1656.2496              1663.9439              1670.0285
 Red. masses --      8.1152                 7.0316                 5.5466
 Frc consts  --     13.1160                11.4705                 9.1143
 IR Inten    --      6.8546                 2.3685                 0.2806

                    118                    119                    120
                     A'                     A'                     A'
 Frequencies --   1674.4171              1685.3043              1686.9630
 Red. masses --      6.2678                 5.8231                 6.6845
 Frc consts  --     10.3535                 9.7445                11.2081
 IR Inten    --      6.3297                 3.6430                 4.1196

                    121                    122                    123
                     A'                     A'                     A'
 Frequencies --   1690.7711              1709.7573              3193.5639
 Red. masses --      6.7698                 7.7989                 1.0869
 Frc consts  --     11.4023                13.4323                 6.5313
 IR Inten    --      7.6801                 1.4426                 0.0066

                    124                    125                    126
                     A'                     A'                     A'
 Frequencies --   3194.0840              3197.4723              3198.9662
 Red. masses --      1.0873                 1.0893                 1.0865
 Frc consts  --      6.5354                 6.5619                 6.5511
 IR Inten    --      1.6996                 4.9885                 0.1821

                    127                    128                    129
                     A'                     A'                     A'
 Frequencies --   3203.7289              3209.4435              3212.3953
 Red. masses --      1.0890                 1.0929                 1.0941
 Frc consts  --      6.5856                 6.6327                 6.6524
 IR Inten    --     15.7530                31.3188                22.8316

                    130                    131                    132
                     A'                     A'                     A'
 Frequencies --   3213.0647              3220.9214              3225.1748
 Red. masses --      1.0921                 1.0930                 1.0958
 Frc consts  --      6.6429                 6.6808                 6.7158
 IR Inten    --     11.2243                 0.6752                 2.2129

                    133                    134                    135
                     A'                     A'                     A'
 Frequencies --   3230.4379              3234.1227              3240.1851
 Red. masses --      1.0942                 1.0951                 1.0901
 Frc consts  --      6.7280                 6.7488                 6.7428
 IR Inten    --      1.2891                 0.8442                18.1445

                    136                    137                    138
                     A'                     A'                     A'
 Frequencies --   3243.2126              3253.3700              3256.7282
 Red. masses --      1.0897                 1.0885                 1.0898
 Frc consts  --      6.7534                 6.7881                 6.8102
 IR Inten    --     11.8726                15.9171                18.8644

 - Thermochemistry -
 -------------------
 Temperature   298.150 Kelvin.  Pressure   1.00000 Atm.
 Atom     1 has atomic number  6 and mass  12.00000

 Molecular mass:   400.12520 amu.
 Principal axes and moments of inertia in atomic units:
                           1         2         3
     Eigenvalues --  7145.74968********************
           X            0.49285   0.87012   0.00000
           Y            0.87012  -0.49285   0.00000
           Z            0.00000   0.00000   1.00000
 This molecule is an asymmetric top.
 Rotational symmetry number  1.
 Warning -- assumption of classical behavior for rotation
           may cause significant error
 Rotational temperatures (Kelvin)      0.01212     0.00592     0.00398
 Rotational constants (GHZ):           0.25256     0.12342     0.08291
 Zero-point vibrational energy     990689.9 (Joules/Mol)
                                  236.78058 (Kcal/Mol)
 Warning -- explicit consideration of  34 degrees of freedom as
           vibrations may cause significant error
 Vibrational temperatures:     15.36    64.00    84.19   121.75   145.77
          (Kelvin)            198.76   259.27   267.12   279.70   343.35
                              397.80   400.52   439.12   445.12   469.14
                              484.94   488.13   521.06   585.97   621.01
                              641.83   651.14   653.29   711.24   725.42
                              762.46   766.94   791.06   814.68   817.25
                              822.98   827.77   862.72   889.15   903.67
                              912.80   930.48   970.43   974.60   978.68
                             1013.95  1023.44  1052.19  1109.50  1114.79
                             1124.20  1126.80  1132.94  1161.68  1165.65
                             1184.79  1201.99  1222.42  1251.55  1269.64
                             1278.32  1288.18  1306.04  1318.00  1321.88
                             1331.30  1337.55  1347.91  1384.12  1398.03
                             1415.16  1422.28  1422.79  1425.81  1429.28
                             1490.98  1522.96  1543.64  1572.97  1605.09
                             1623.33  1647.82  1653.75  1692.21  1705.51
                             1717.19  1728.58  1733.44  1762.46  1776.49
                             1780.59  1813.35  1816.79  1846.87  1872.56
                             1883.37  1918.99  1925.25  1956.60  1961.83
                             1968.61  1976.61  1994.99  2022.04  2057.06
                             2062.08  2072.29  2097.11  2108.07  2143.51
                             2154.84  2185.27  2198.22  2204.27  2219.38
                             2254.73  2267.45  2305.67  2368.18  2382.97
                             2394.04  2402.80  2409.11  2424.77  2427.16
                             2432.64  2459.96  4594.82  4595.57  4600.44
                             4602.59  4609.45  4617.67  4621.91  4622.88
                             4634.18  4640.30  4647.87  4653.18  4661.90
                             4666.25  4680.87  4685.70

 Zero-point correction=                           0.377334 (Hartree/Particle)
 Thermal correction to Energy=                    0.397042
 Thermal correction to Enthalpy=                  0.397986
 Thermal correction to Gibbs Free Energy=         0.328952
 Sum of electronic and zero-point Energies=          -1228.767014
 Sum of electronic and thermal Energies=             -1228.747306
 Sum of electronic and thermal Enthalpies=           -1228.746362
 Sum of electronic and thermal Free Energies=        -1228.815396

                     E (Thermal)             CV                S
                      KCal/Mol        Cal/Mol-Kelvin    Cal/Mol-Kelvin
 Total                  249.147             86.597            145.293
 Electronic               0.000              0.000              0.000
 Translational            0.889              2.981             43.851
 Rotational               0.889              2.981             36.074
 Vibrational            247.370             80.635             65.368
 Vibration     1          0.593              1.987              7.881
 Vibration     2          0.595              1.980              5.049
 Vibration     3          0.596              1.974              4.507
 Vibration     4          0.601              1.960              3.781
 Vibration     5          0.604              1.948              3.429
 Vibration     6          0.614              1.915              2.829
 Vibration     7          0.629              1.867              2.326
 Vibration     8          0.632              1.859              2.271
 Vibration     9          0.635              1.848              2.185
 Vibration    10          0.657              1.781              1.813
 Vibration    11          0.678              1.717              1.555
 Vibration    12          0.679              1.714              1.544
 Vibration    13          0.696              1.664              1.388
 Vibration    14          0.699              1.656              1.366
 Vibration    15          0.710              1.623              1.280
 Vibration    16          0.718              1.602              1.226
 Vibration    17          0.719              1.597              1.216
 Vibration    18          0.736              1.550              1.113
 Vibration    19          0.772              1.454              0.936
 Vibration    20          0.793              1.401              0.853
 Vibration    21          0.805              1.370              0.808
 Vibration    22          0.811              1.355              0.788
 Vibration    23          0.813              1.352              0.784
 Vibration    24          0.850              1.263              0.672
 Vibration    25          0.859              1.241              0.648
 Vibration    26          0.885              1.184              0.587
 Vibration    27          0.888              1.177              0.580
 Vibration    28          0.905              1.140              0.545
 Vibration    29          0.922              1.104              0.512
 Vibration    30          0.924              1.100              0.508
 Vibration    31          0.928              1.092              0.500
 Vibration    32          0.932              1.085              0.494
 Vibration    33          0.958              1.033              0.450
 Vibration    34          0.978              0.994              0.420

 Optimization completed.
    -- Stationary point found.
 Normal termination of Gaussian 09 at Sat Jul 27 22:20:36 2019.
