 Gaussian 09, Revision D.01,
 Gaussian 09:  AM64L-G09RevD.01 24-Apr-2013

 ----------------------------------------------------------------------
 #P wB97XD/def2tzvp opt=(tight) freq integral(Grid=ultrafine) # SCF(Max
 Cycle=380) 5d 7f GFPrint
 ----------------------------------------------------------------------

 ---------------------------------------
 The PBEPBE optimization and frequencies
 ---------------------------------------
 Symbolic Z-matrix:
 Charge =  0 Multiplicity = 1

 SCF Done:  E(RwB97XD) =  -157.219793652     A.U. after   12 cycles
 SCF Done:  E(RwB97XD) =  -157.219816899     A.U. after    8 cycles
 SCF Done:  E(RwB97XD) =  -157.219817248     A.U. after    6 cycles
 SCF Done:  E(RwB97XD) =  -157.219817260     A.U. after    5 cycles
 SCF Done:  E(RwB97XD) =  -157.219817261     A.U. after    4 cycles
 Optimization completed.
    -- Stationary point found.

 1\1\GINC-CN513-11-R\FOpt\RwB97XD\def2TZVP\C4H8\MINENKY\09-Jul-2021\0\\
 #P wB97XD/def2tzvp opt=(tight) freq integral(Grid=ultrafine) # SCF(Max
 Cycle=380) 5d 7f GFPrint\\The PBEPBE optimization and frequencies\\0,1
 \C,-0.3463899827,0.4017491373,0.\C,-0.3454841728,-0.8955523728,0.75197
 06595\C,-0.3454841728,-0.8955523728,-0.7519706595\H,-1.2495669932,-1.1
 996325675,1.2619791494\H,0.5698869376,-1.1808514315,1.2550680659\H,-1.
 2495669932,-1.1996325675,-1.2619791494\H,0.5698869376,-1.1808514315,-1
 .2550680659\H,-1.2868678264,0.9409933138,0.\C,0.8790360476,1.276520039

 Normal termination of Gaussian 09 at Fri Jul  9 19:20:25 2021.

 ---------------------------------------------------------------------
 #P Geom=AllCheck Guess=TCheck SCRF=Check GenChk RwB97XD/def2TZVP Freq
 ---------------------------------------------------------------------

 Structure from the checkpoint file:  "m1_00_594-11-60_C4H8_wB97XD.chk"
 ---------------------------------------
 The PBEPBE optimization and frequencies
 ---------------------------------------
 Charge =  0 Multiplicity = 1

                         Standard orientation:
 ---------------------------------------------------------------------
 Center     Atomic      Atomic             Coordinates (Angstroms)
 Number     Number       Type             X           Y           Z
 ---------------------------------------------------------------------
      1          6           0       -0.346302    0.401758    0.000000
      2          6           0       -0.346302   -0.895543    0.751971
      3          6           0       -0.346302   -0.895543   -0.751971
      4          1           0       -1.250597   -1.198992    1.261979
      5          1           0        0.568869   -1.181482    1.255068
      6          1           0       -1.250597   -1.198992   -1.261979
      7          1           0        0.568869   -1.181482   -1.255068
      8          1           0       -1.286403    0.941659    0.000000
      9          6           0        0.879734    1.275673    0.000000
     10          1           0        1.787550    0.667680    0.000000
     11          1           0        0.908674    1.916769    0.883766
     12          1           0        0.908674    1.916769   -0.883766
 ---------------------------------------------------------------------

 SCF Done:  E(RwB97XD) =  -157.219817261     A.U. after    1 cycles

 The electronic state is 1-A'.
 Alpha  occ. eigenvalues --  -10.28597 -10.27676 -10.27650 -10.27090  -0.95828
 Alpha  occ. eigenvalues --   -0.80702  -0.69130  -0.65913  -0.58219  -0.53897
 Alpha  occ. eigenvalues --   -0.49502  -0.47349  -0.44274  -0.43144  -0.36946
 Alpha  occ. eigenvalues --   -0.35920
 Alpha virt. eigenvalues --    0.12472   0.13956   0.15490   0.16151   0.18461
 Alpha virt. eigenvalues --    0.19157   0.20402   0.21023   0.23024   0.24129
 Alpha virt. eigenvalues --    0.26090   0.27406   0.28853   0.32722   0.32873

 Mulliken charges:
               1
     1  C   -0.044325
     2  C   -0.233751
     3  C   -0.233751
     4  H    0.110483
     5  H    0.106497
     6  H    0.110483
     7  H    0.106497
     8  H    0.095667
     9  C   -0.349002
    10  H    0.102597
    11  H    0.114302
    12  H    0.114302
 Sum of Mulliken charges =   0.00000

 Dipole moment (field-independent basis, Debye):
    X=             -0.0425    Y=              0.1349    Z=              0.0000  Tot=              0.1414
 Quadrupole moment (field-independent basis, Debye-Ang):
   XX=            -25.3317   YY=            -27.3143   ZZ=            -27.0415
   XY=             -0.2454   XZ=              0.0000   YZ=              0.0000

  Exact polarizability:  44.331   3.157  49.351   0.000   0.000  45.958
 Approx polarizability:  46.862   0.303  49.795   0.000   0.000  49.381

                      1                      2                      3
                     A"                     A"                     A'
 Frequencies --    223.7074               349.1281               374.0416
 Red. masses --      1.0708                 1.9768                 2.1258
 Frc consts  --      0.0316                 0.1420                 0.1752
 IR Inten    --      0.0010                 0.6338                 0.1864

                      4                      5                      6
                     A'                     A'                     A"
 Frequencies --    781.3055               807.4838               833.0296
 Red. masses --      1.5674                 1.4146                 1.0939
 Frc consts  --      0.5637                 0.5434                 0.4473
 IR Inten    --      4.0112                 4.9537                 5.7485

                      7                      8                      9
                     A"                     A'                     A'
 Frequencies --    884.3003               952.3274              1008.7567
 Red. masses --      2.9978                 1.2433                 1.7632
 Frc consts  --      1.3812                 0.6643                 1.0571
 IR Inten    --      9.0487                 3.4591                 9.9064

                     10                     11                     12
                     A'                     A"                     A"
 Frequencies --   1065.9809              1084.4651              1116.8495
 Red. masses --      1.5644                 1.4013                 1.3065
 Frc consts  --      1.0473                 0.9710                 0.9602
 IR Inten    --      6.2921                 1.1723                 4.4995

                     13                     14                     15
                     A"                     A"                     A'
 Frequencies --   1155.0893              1203.8923              1219.9645
 Red. masses --      1.3181                 1.4032                 1.6722
 Frc consts  --      1.0361                 1.1982                 1.4663
 IR Inten    --      0.1861                 0.6216                 0.0069

                     16                     17                     18
                     A'                     A'                     A'
 Frequencies --   1241.2382              1401.2577              1436.3660
 Red. masses --      1.8483                 1.3044                 1.4999
 Frc consts  --      1.6777                 1.5091                 1.8232
 IR Inten    --      0.0002                 1.5559                 4.0471

                     19                     20                     21
                     A"                     A"                     A'
 Frequencies --   1476.3123              1496.1568              1505.5340
 Red. masses --      1.0861                 1.0458                 1.0440
 Frc consts  --      1.3947                 1.3792                 1.3943
 IR Inten    --      3.9053                 2.4400                10.0332

                     22                     23                     24
                     A'                     A'                     A'
 Frequencies --   1525.9042              3041.9675              3112.8372
 Red. masses --      1.4338                 1.0354                 1.1009
 Frc consts  --      1.9669                 5.6450                 6.2853
 IR Inten    --      1.7344                32.8861                21.8273

                     25                     26                     27
                     A"                     A"                     A'
 Frequencies --   3113.3867              3146.7376              3152.5281
 Red. masses --      1.1023                 1.0511                 1.0593
 Frc consts  --      6.2950                 6.1320                 6.2025
 IR Inten    --     27.3639                23.4987                11.5952

                     28                     29                     30
                     A'                     A"                     A'
 Frequencies --   3167.9210              3227.6708              3242.2798
 Red. masses --      1.0904                 1.1189                 1.1158
 Frc consts  --      6.4475                 6.8677                 6.9109
 IR Inten    --     16.7600                 0.2537                22.5830

 - Thermochemistry -
 -------------------
 Temperature   298.150 Kelvin.  Pressure   1.00000 Atm.
 Atom     1 has atomic number  6 and mass  12.00000

 Molecular mass:    56.06260 amu.
 Principal axes and moments of inertia in atomic units:
                           1         2         3
     Eigenvalues --   114.73367 282.50777 321.54768
           X            0.48007   0.00000   0.87723
           Y            0.87723   0.00000  -0.48007
           Z            0.00000   1.00000   0.00000
 This molecule is an asymmetric top.
 Rotational symmetry number  1.
 Rotational temperatures (Kelvin)      0.75491     0.30659     0.26937
 Rotational constants (GHZ):          15.72983     6.38829     5.61267
 Zero-point vibrational energy     289187.8 (Joules/Mol)
                                   69.11754 (Kcal/Mol)
 Warning -- explicit consideration of   3 degrees of freedom as
           vibrations may cause significant error
 Vibrational temperatures:    321.86   502.32   538.16  1124.12  1161.79
          (Kelvin)           1198.54  1272.31  1370.18  1451.37  1533.71
                             1560.30  1606.90  1661.91  1732.13  1755.25
                             1785.86  2016.09  2066.61  2124.08  2152.63
                             2166.12  2195.43  4376.71  4478.67  4479.46
                             4527.45  4535.78  4557.93  4643.89  4664.91

 Zero-point correction=                           0.110146 (Hartree/Particle)
 Thermal correction to Energy=                    0.114745
 Thermal correction to Enthalpy=                  0.115690
 Thermal correction to Gibbs Free Energy=         0.083660
 Sum of electronic and zero-point Energies=           -157.109671
 Sum of electronic and thermal Energies=              -157.105072
 Sum of electronic and thermal Enthalpies=            -157.104128
 Sum of electronic and thermal Free Energies=         -157.136158

                     E (Thermal)             CV                S
                      KCal/Mol        Cal/Mol-Kelvin    Cal/Mol-Kelvin
 Total                   72.004             16.288             67.413
 Electronic               0.000              0.000              0.000
 Translational            0.889              2.981             37.993
 Rotational               0.889              2.981             23.859
 Vibrational             70.226             10.326              5.561
 Vibration     1          0.649              1.805              1.929
 Vibration     2          0.726              1.577              1.170
 Vibration     3          0.745              1.525              1.063

 1\1\GINC-CN513-11-R\Freq\RwB97XD\def2TZVP\C4H8\MINENKY\09-Jul-2021\0\\
 #P Geom=AllCheck Guess=TCheck SCRF=Check GenChk RwB97XD/def2TZVP Freq\
 \The PBEPBE optimization and frequencies\\0,1\C,-0.3463899827,0.401749
 1373,0.\C,-0.3454841728,-0.8955523728,0.7519706595\C,-0.3454841728,-0.
 8955523728,-0.7519706595\H,-1.2495669932,-1.1996325675,1.2619791494\H,
 0.5698869376,-1.1808514315,1.2550680659\H,-1.2495669932,-1.1996325675,
 -1.2619791494\H,0.5698869376,-1.1808514315,-1.2550680659\H,-1.28686782
 64,0.9409933138,0.\C,0.8790360476,1.2765200395,0.\H,1.7872766059,0.669

 Normal termination of Gaussian 09 at Fri Jul  9 19:21:58 2021.
