 Gaussian 09, Revision D.01,
 Gaussian 09:  AM64L-G09RevD.01 24-Apr-2013

 ----------------------------------------------------------------------
 #P wB97XD/def2tzvp opt=(tight) freq integral(Grid=ultrafine) # SCF(Max
 Cycle=380) 5d 7f GFPrint
 ----------------------------------------------------------------------

 ---------------------------------------
 The PBEPBE optimization and frequencies
 ---------------------------------------
 Symbolic Z-matrix:
 Charge =  0 Multiplicity = 1

 SCF Done:  E(RwB97XD) =  -117.901041603     A.U. after   12 cycles
 SCF Done:  E(RwB97XD) =  -117.901063509     A.U. after    7 cycles
 SCF Done:  E(RwB97XD) =  -117.901063727     A.U. after    6 cycles
 Optimization completed.
    -- Stationary point found.

 1\1\GINC-CN514-06-R\FOpt\RwB97XD\def2TZVP\C3H6\MINENKY\09-Jul-2021\0\\
 #P wB97XD/def2tzvp opt=(tight) freq integral(Grid=ultrafine) # SCF(Max
 Cycle=380) 5d 7f GFPrint\\The PBEPBE optimization and frequencies\\0,1
 \C,-0.0000001347,0.8659747742,0.\C,-0.7499560862,-0.4329875038,0.\C,0.
 7499562209,-0.4329872705,0.\H,-0.0000002258,1.4518170472,0.9091503436\
 H,-0.0000002258,1.4518170472,-0.9091503436\H,-1.2573103317,-0.72590871
 92,0.9091503436\H,-1.2573103317,-0.7259087192,-0.9091503436\H,1.257310
 5575,-0.7259083281,0.9091503436\H,1.2573105575,-0.7259083281,-0.909150

 Normal termination of Gaussian 09 at Fri Jul  9 19:29:26 2021.

 ---------------------------------------------------------------------
 #P Geom=AllCheck Guess=TCheck SCRF=Check GenChk RwB97XD/def2TZVP Freq
 ---------------------------------------------------------------------

 Structure from the checkpoint file:  "m1_00_75-19-40_C3H6_wB97XD.chk"
 ---------------------------------------
 The PBEPBE optimization and frequencies
 ---------------------------------------
 Charge =  0 Multiplicity = 1

                         Standard orientation:
 ---------------------------------------------------------------------
 Center     Atomic      Atomic             Coordinates (Angstroms)
 Number     Number       Type             X           Y           Z
 ---------------------------------------------------------------------
      1          6           0        0.000000    0.865975    0.000000
      2          6           0       -0.749956   -0.432987    0.000000
      3          6           0        0.749956   -0.432987    0.000000
      4          1           0        0.000000    1.451817    0.909150
      5          1           0        0.000000    1.451817   -0.909150
      6          1           0       -1.257310   -0.725909    0.909150
      7          1           0       -1.257310   -0.725909   -0.909150
      8          1           0        1.257310   -0.725909    0.909150
      9          1           0        1.257310   -0.725909   -0.909150
 ---------------------------------------------------------------------

 SCF Done:  E(RwB97XD) =  -117.901063727     A.U. after    1 cycles

 The electronic state is 1-A1'.
 Alpha  occ. eigenvalues --  -10.28037 -10.27997 -10.27997  -0.95191  -0.69124
 Alpha  occ. eigenvalues --   -0.69124  -0.58491  -0.55183  -0.44502  -0.44502
 Alpha  occ. eigenvalues --   -0.37779  -0.37779
 Alpha virt. eigenvalues --    0.13122   0.14415   0.15786   0.15786   0.20597
 Alpha virt. eigenvalues --    0.23622   0.23622   0.24083   0.26809   0.26809
 Alpha virt. eigenvalues --    0.32053   0.32053   0.36611   0.37909   0.39931

 Mulliken charges:
               1
     1  C   -0.218644
     2  C   -0.218644
     3  C   -0.218644
     4  H    0.109322
     5  H    0.109322
     6  H    0.109322
     7  H    0.109322
     8  H    0.109322
     9  H    0.109322
 Sum of Mulliken charges =   0.00000

 Dipole moment (field-independent basis, Debye):
    X=              0.0000    Y=              0.0000    Z=              0.0000  Tot=              0.0000
 Quadrupole moment (field-independent basis, Debye-Ang):
   XX=            -20.6542   YY=            -20.6542   ZZ=            -18.2812
   XY=              0.0000   XZ=              0.0000   YZ=              0.0000

  Exact polarizability:  35.735   0.000  35.736   0.000   0.000  32.324
 Approx polarizability:  36.853   0.000  36.853   0.000   0.000  34.497

                      1                      2                      3
                     E"                     E"                     A2"
 Frequencies --    753.8667               753.8667               868.9730
 Red. masses --      1.0221                 1.0221                 1.0445
 Frc consts  --      0.3422                 0.3422                 0.4647
 IR Inten    --      0.0000                 0.0000                 0.4998

                      4                      5                      6
                     E'                     E'                     E'
 Frequencies --    899.9789               899.9789              1066.8725
 Red. masses --      3.3322                 3.3322                 1.3176
 Frc consts  --      1.5902                 1.5902                 0.8836
 IR Inten    --     22.4638                22.4888                 8.2961

                      7                      8                      9
                     E'                     A2'                    A1"
 Frequencies --   1066.8725              1102.6896              1160.2748
 Red. masses --      1.3176                 1.4271                 1.0078
 Frc consts  --      0.8836                 1.0223                 0.7994
 IR Inten    --      8.3103                 0.0000                 0.0000

                     10                     11                     12
                     E"                     E"                     A1'
 Frequencies --   1218.3083              1218.3083              1221.7056
 Red. masses --      1.4503                 1.4503                 2.6476
 Frc consts  --      1.2683                 1.2683                 2.3283
 IR Inten    --      0.0000                 0.0000                 0.0000

                     13                     14                     15
                     E'                     E'                     A1'
 Frequencies --   1480.5135              1480.5135              1532.6476
 Red. masses --      1.0885                 1.0885                 1.3330
 Frc consts  --      1.4058                 1.4058                 1.8448
 IR Inten    --      1.7093                 1.7077                 0.0000

                     16                     17                     18
                     E'                     E'                     A1'
 Frequencies --   3154.3440              3154.3440              3163.4541
 Red. masses --      1.0509                 1.0509                 1.0639
 Frc consts  --      6.1606                 6.1606                 6.2732
 IR Inten    --     23.0124                23.0086                 0.0000

                     19                     20                     21
                     E"                     E"                     A2"
 Frequencies --   3234.0742              3234.0742              3254.7816
 Red. masses --      1.1195                 1.1195                 1.1156
 Frc consts  --      6.8991                 6.8991                 6.9629
 IR Inten    --      0.0000                 0.0000                26.2753

 - Thermochemistry -
 -------------------
 Temperature   298.150 Kelvin.  Pressure   1.00000 Atm.
 Atom     1 has atomic number  6 and mass  12.00000

 Molecular mass:    42.04695 amu.
 Principal axes and moments of inertia in atomic units:
                           1         2         3
     Eigenvalues --    88.81007  88.81007 141.92283
           X            0.84902   0.52835   0.00000
           Y           -0.52835   0.84902   0.00000
           Z            0.00000   0.00000   1.00000
 This molecule is an oblate symmetric top.
 Rotational symmetry number  6.
 Rotational temperatures (Kelvin)      0.97527     0.97527     0.61029
 Rotational constants (GHZ):          20.32136    20.32136    12.71636
 Zero-point vibrational energy     214852.0 (Joules/Mol)
                                   51.35085 (Kcal/Mol)
 Vibrational temperatures:   1084.64  1084.64  1250.26  1294.87  1294.87
          (Kelvin)           1534.99  1534.99  1586.52  1669.37  1752.87
                             1752.87  1757.76  2130.13  2130.13  2205.14
                             4538.39  4538.39  4551.50  4653.11  4653.11
                             4682.90

 Zero-point correction=                           0.081833 (Hartree/Particle)
 Thermal correction to Energy=                    0.085182
 Thermal correction to Enthalpy=                  0.086126
 Thermal correction to Gibbs Free Energy=         0.059256
 Sum of electronic and zero-point Energies=           -117.819231
 Sum of electronic and thermal Energies=              -117.815882
 Sum of electronic and thermal Enthalpies=            -117.814937
 Sum of electronic and thermal Free Energies=         -117.841808

                     E (Thermal)             CV                S
                      KCal/Mol        Cal/Mol-Kelvin    Cal/Mol-Kelvin
 Total                   53.453             10.899             56.554
 Electronic               0.000              0.000              0.000
 Translational            0.889              2.981             37.136
 Rotational               0.889              2.981             18.082
 Vibrational             51.675              4.938              1.337

 Optimization completed.
    -- Stationary point found.

 1\1\GINC-CN514-06-R\Freq\RwB97XD\def2TZVP\C3H6\MINENKY\09-Jul-2021\0\\
 #P Geom=AllCheck Guess=TCheck SCRF=Check GenChk RwB97XD/def2TZVP Freq\
 \The PBEPBE optimization and frequencies\\0,1\C,-0.0000001347,0.865974
 7742,0.\C,-0.7499560862,-0.4329875038,0.\C,0.7499562209,-0.4329872705,
 0.\H,-0.0000002258,1.4518170472,0.9091503436\H,-0.0000002258,1.4518170
 472,-0.9091503436\H,-1.2573103317,-0.7259087192,0.9091503436\H,-1.2573
 103317,-0.7259087192,-0.9091503436\H,1.2573105575,-0.7259083281,0.9091
 503436\H,1.2573105575,-0.7259083281,-0.9091503436\\Version=AM64L-G09Re

 Normal termination of Gaussian 09 at Fri Jul  9 19:32:00 2021.
