 Gaussian 09, Revision D.01,
 Gaussian 09:  AM64L-G09RevD.01 24-Apr-2013

 ----------------------------------------------------------------------
 #P wB97XD/def2tzvp opt=(tight) freq integral(Grid=ultrafine) # SCF(Max
 Cycle=380) 5d 7f GFPrint
 ----------------------------------------------------------------------

 ---------------------------------------
 The PBEPBE optimization and frequencies
 ---------------------------------------
 Symbolic Z-matrix:
 Charge =  0 Multiplicity = 1

 SCF Done:  E(RwB97XD) =  -1229.12477241     A.U. after   14 cycles
 SCF Done:  E(RwB97XD) =  -1229.12984486     A.U. after   13 cycles
 SCF Done:  E(RwB97XD) =  -1229.13028858     A.U. after   12 cycles
 SCF Done:  E(RwB97XD) =  -1229.13031007     A.U. after    9 cycles
 SCF Done:  E(RwB97XD) =  -1229.13031183     A.U. after    8 cycles
 SCF Done:  E(RwB97XD) =  -1229.13031181     A.U. after    5 cycles
 SCF Done:  E(RwB97XD) =  -1229.13031184     A.U. after    4 cycles
 Optimization completed.
    -- Stationary point found.
 Normal termination of Gaussian 09 at Sat Jul 27 21:26:06 2019.

 ---------------------------------------------------------------------
 #P Geom=AllCheck Guess=TCheck SCRF=Check GenChk RwB97XD/def2TZVP Freq
 ---------------------------------------------------------------------

 Structure from the checkpoint file:  "m1_00_72986-34-6-C32H16_wB97XD.chk"
 ---------------------------------------
 The PBEPBE optimization and frequencies
 ---------------------------------------
 Charge =  0 Multiplicity = 1

                         Standard orientation:
 ---------------------------------------------------------------------
 Center     Atomic      Atomic             Coordinates (Angstroms)
 Number     Number       Type             X           Y           Z
 ---------------------------------------------------------------------
      1          6           0        5.450253    3.597425    0.000000
      2          6           0        4.921608    4.900318    0.000000
      3          6           0        3.569347    5.079449    0.000000
      4          6           0        4.619067    2.511483    0.000000
      5          6           0        3.213800    2.658777    0.000000
      6          6           0        2.687212    3.973285    0.000000
      7          6           0        1.289568    4.166698    0.000000
      8          6           0        0.417816    3.111845    0.000000
      9          6           0       -1.005428    3.310712    0.000000
     10          6           0       -1.861164    2.276687    0.000000
     11          6           0       -1.403701    0.909809    0.000000
     12          6           0        0.000000    0.680083    0.000000
     13          6           0        2.765176    0.202547    0.000000
     14          6           0        2.306745    1.539605    0.000000
     15          6           0        0.917747    1.770566    0.000000
     16          6           0       -2.290555   -0.178330    0.000000
     17          6           0       -3.720422   -0.016824    0.000000
     18          6           0       -4.557720   -1.070770    0.000000
     19          6           0       -4.067802   -2.418351    0.000000
     20          6           0       -4.918410   -3.516398    0.000000
     21          6           0       -4.406993   -4.808644    0.000000
     22          6           0       -3.045093   -5.019729    0.000000
     23          6           0       -2.666114   -2.619213    0.000000
     24          6           0       -2.151385   -3.939799    0.000000
     25          6           0       -0.745482   -4.130346    0.000000
     26          6           0       -1.780159   -1.506769    0.000000
     27          6           0       -0.389734   -1.731368    0.000000
     28          6           0        0.119997   -3.075698    0.000000
     29          6           0        1.552234   -3.265611    0.000000
     30          6           0        2.394115   -2.223395    0.000000
     31          6           0        1.908314   -0.862901    0.000000
     32          6           0        0.495500   -0.641300    0.000000
     33          1           0        6.523087    3.452652    0.000000
     34          1           0        5.587144    5.754014    0.000000
     35          1           0        3.146996    6.077388    0.000000
     36          1           0        5.060540    1.525223    0.000000
     37          1           0        0.902545    5.179674    0.000000
     38          1           0       -1.378026    4.328162    0.000000
     39          1           0       -2.920931    2.483387    0.000000
     40          1           0        3.826499   -0.003876    0.000000
     41          1           0       -4.144483    0.976209    0.000000
     42          1           0       -5.629826   -0.913290    0.000000
     43          1           0       -5.989925   -3.355872    0.000000
     44          1           0       -5.083466   -5.653900    0.000000
     45          1           0       -2.649294   -6.028295    0.000000
     46          1           0       -0.357445   -5.142969    0.000000
     47          1           0        1.930274   -4.281044    0.000000
     48          1           0        3.466285   -2.380510    0.000000
 ---------------------------------------------------------------------

 SCF Done:  E(RwB97XD) =  -1229.13031184     A.U. after    1 cycles

 The electronic state is 1-A'.
 Alpha  occ. eigenvalues --  -10.30677 -10.30621 -10.30620 -10.30471 -10.30427
 Alpha  occ. eigenvalues --  -10.30372 -10.30332 -10.30330 -10.30289 -10.30236
 Alpha  occ. eigenvalues --  -10.30203 -10.30167 -10.30117 -10.30113 -10.30107
 Alpha  occ. eigenvalues --  -10.30070 -10.29461 -10.29385 -10.29374 -10.29365
 Alpha  occ. eigenvalues --  -10.29301 -10.29278 -10.29268 -10.29239 -10.29213
 Alpha  occ. eigenvalues --  -10.29200 -10.29155 -10.29145 -10.29136 -10.29115
 Alpha  occ. eigenvalues --  -10.29097 -10.29040  -1.01683  -0.99727  -0.97617
 Alpha  occ. eigenvalues --   -0.96613  -0.94616  -0.93525  -0.91222  -0.90706
 Alpha  occ. eigenvalues --   -0.88699  -0.86836  -0.86321  -0.85686  -0.83637
 Alpha  occ. eigenvalues --   -0.83232  -0.82402  -0.79830  -0.75055  -0.74233
 Alpha  occ. eigenvalues --   -0.74000  -0.73420  -0.71766  -0.71121  -0.70194
 Alpha  occ. eigenvalues --   -0.67707  -0.65104  -0.64238  -0.63856  -0.63353
 Alpha  occ. eigenvalues --   -0.61980  -0.60049  -0.59697  -0.58531  -0.57205
 Alpha  occ. eigenvalues --   -0.56786  -0.55708  -0.55266  -0.54363  -0.53505
 Alpha  occ. eigenvalues --   -0.52897  -0.52549  -0.51977  -0.51313  -0.51071
 Alpha  occ. eigenvalues --   -0.50764  -0.50520  -0.50054  -0.49001  -0.48613
 Alpha  occ. eigenvalues --   -0.47860  -0.47709  -0.47497  -0.46929  -0.46456
 Alpha  occ. eigenvalues --   -0.45557  -0.45460  -0.44079  -0.43615  -0.43123
 Alpha  occ. eigenvalues --   -0.42451  -0.41504  -0.40599  -0.39971  -0.39410
 Alpha  occ. eigenvalues --   -0.38985  -0.37538  -0.34916  -0.34598  -0.33632
 Alpha  occ. eigenvalues --   -0.30792  -0.30530  -0.29153  -0.23506
 Alpha virt. eigenvalues --   -0.04178   0.00680   0.02306   0.02690   0.05117
 Alpha virt. eigenvalues --    0.05719   0.06491   0.09434   0.12122   0.12178
 Alpha virt. eigenvalues --    0.12362   0.12621   0.12819   0.13462   0.13658

 Mulliken charges:
               1
     1  C   -0.099661
     2  C   -0.104430
     3  C   -0.183554
     4  C   -0.211054
     5  C    0.082743
     6  C    0.137246
     7  C   -0.296676
     8  C    0.178862
     9  C   -0.215171
    10  C   -0.243825
    11  C    0.173802
    12  C    0.016007
    13  C   -0.368759
    14  C    0.235465
    15  C   -0.008724
    16  C    0.166185
    17  C   -0.232487
    18  C   -0.198207
    19  C    0.137940
    20  C   -0.161705
    21  C   -0.084696
    22  C   -0.183305
    23  C   -0.045686
    24  C    0.161034
    25  C   -0.296401
    26  C    0.026972
    27  C   -0.005936
    28  C    0.188125
    29  C   -0.209627
    30  C   -0.228175
    31  C    0.189857
    32  C    0.011520
    33  H    0.116217
    34  H    0.117471
    35  H    0.110432
    36  H    0.108142
    37  H    0.101168
    38  H    0.101860
    39  H    0.090409
    40  H    0.090972
    41  H    0.091767
    42  H    0.101540
    43  H    0.110174
    44  H    0.115330
    45  H    0.109792
    46  H    0.098456
    47  H    0.104998
    48  H    0.103593
 Sum of Mulliken charges =   0.00000

 Dipole moment (field-independent basis, Debye):
    X=              0.0238    Y=              0.0072    Z=              0.0000  Tot=              0.0249
 Quadrupole moment (field-independent basis, Debye-Ang):
   XX=           -154.9929   YY=           -155.1891   ZZ=           -192.0089
   XY=              0.7818   XZ=              0.0000   YZ=              0.0000

  Exact polarizability: 605.524 236.886 650.704   0.000   0.000 155.760
 Approx polarizability: 665.957 182.534 723.304   0.000   0.000 222.644

                      1                      2                      3
                     A"                     A"                     A"
 Frequencies --     30.2439                53.3863                83.8401
 Red. masses --      6.0257                 4.5714                 4.7590
 Frc consts  --      0.0032                 0.0077                 0.0197
 IR Inten    --      0.1759                 0.0308                 0.0304

                      4                      5                      6
                     A"                     A"                     A'
 Frequencies --     94.3013               131.4207               151.8139
 Red. masses --      4.6851                 4.5073                 5.6527
 Frc consts  --      0.0245                 0.0459                 0.0768
 IR Inten    --      0.0047                 4.3647                 0.6691

                      7                      8                      9
                     A"                     A"                     A"
 Frequencies --    159.9927               192.6793               228.1039
 Red. masses --      4.8811                 4.0942                 4.1634
 Frc consts  --      0.0736                 0.0896                 0.1276
 IR Inten    --      0.5842                 2.0578                 0.1341

                     10                     11                     12
                     A'                     A"                     A"
 Frequencies --    239.9455               257.1650               269.7337
 Red. masses --      7.0566                 4.7624                 4.7502
 Frc consts  --      0.2394                 0.1856                 0.2036
 IR Inten    --      0.0625                 0.0438                 0.0793

                     13                     14                     15
                     A'                     A"                     A"
 Frequencies --    295.5365               313.6294               329.2377
 Red. masses --      5.9219                 4.6996                 3.8457
 Frc consts  --      0.3047                 0.2724                 0.2456
 IR Inten    --      0.0189                 0.5626                 0.0358

                     16                     17                     18
                     A"                     A'                     A'
 Frequencies --    363.9559               378.6386               390.0924
 Red. masses --      4.8267                 7.3536                 5.4530
 Frc consts  --      0.3767                 0.6212                 0.4889
 IR Inten    --      0.0121                 0.2857                 6.0388

                     19                     20                     21
                     A"                     A'                     A'
 Frequencies --    395.0007               435.5621               447.3086
 Red. masses --      3.6709                 7.8175                 6.0244
 Frc consts  --      0.3375                 0.8738                 0.7102
 IR Inten    --      0.0318                 0.4266                 5.3143

                     22                     23                     24
                     A'                     A"                     A'
 Frequencies --    457.4027               462.7882               480.4873
 Red. masses --      6.6219                 3.2633                 4.8721
 Frc consts  --      0.8163                 0.4118                 0.6627
 IR Inten    --      0.3065                 2.6107                 4.0918

                     25                     26                     27
                     A"                     A"                     A"
 Frequencies --    509.1270               528.5039               542.6291
 Red. masses --      3.9985                 3.8611                 3.5542
 Frc consts  --      0.6107                 0.6354                 0.6166
 IR Inten    --      0.8542                 2.3196                 0.0762

                     28                     29                     30
                     A'                     A'                     A"
 Frequencies --    542.8714               544.3982               564.6668
 Red. masses --      6.6702                 6.3585                 3.4219
 Frc consts  --      1.1582                 1.1103                 0.6428
 IR Inten    --      0.3775                 0.5481                 3.6787

                     31                     32                     33
                     A"                     A'                     A"
 Frequencies --    573.9324               583.0668               583.3056
 Red. masses --      3.2528                 6.0253                 3.2701
 Frc consts  --      0.6313                 1.2069                 0.6555
 IR Inten    --      6.8207                 0.3784                20.6439

                     34                     35                     36
                     A'                     A'                     A'
 Frequencies --    596.4400               611.4437               650.2154
 Red. masses --      7.0986                 7.3841                 6.1173
 Frc consts  --      1.4878                 1.6265                 1.5238
 IR Inten    --      1.6844                 1.1312                17.1495

                     37                     38                     39
                     A'                     A"                     A"
 Frequencies --    657.3300               657.3306               679.2862
 Red. masses --      6.5079                 4.4699                 3.8269
 Frc consts  --      1.6568                 1.1379                 1.0404
 IR Inten    --      3.7199                 0.2932                 0.7409

                     40                     41                     42
                     A'                     A"                     A'
 Frequencies --    680.0348               696.1217               722.3182
 Red. masses --      5.5271                 3.3788                 6.4646
 Frc consts  --      1.5060                 0.9647                 1.9872
 IR Inten    --      0.4425                 0.2170                 4.0448

                     43                     44                     45
                     A"                     A'                     A"
 Frequencies --    727.2112               748.2202               768.6111
 Red. masses --      2.4587                 6.2757                 1.3845
 Frc consts  --      0.7661                 2.0700                 0.4819
 IR Inten    --      3.6973                 3.8373                42.0595

                     46                     47                     48
                     A"                     A"                     A'
 Frequencies --    781.8698               788.7892               793.2282
 Red. masses --      1.3865                 1.9783                 6.3607
 Frc consts  --      0.4994                 0.7252                 2.3580
 IR Inten    --     24.6077                 0.3213                 3.1213

                     49                     50                     51
                     A'                     A"                     A"
 Frequencies --    808.7116               817.6552               820.0797
 Red. masses --      6.1210                 1.6423                 2.6732
 Frc consts  --      2.3586                 0.6469                 1.0592
 IR Inten    --      9.6179                30.2615                 3.1207

                     52                     53                     54
                     A"                     A"                     A'
 Frequencies --    830.6130               847.7154               865.5677
 Red. masses --      1.9427                 2.5549                 5.4914
 Frc consts  --      0.7897                 1.0817                 2.4240
 IR Inten    --      0.7089                28.8583                 0.5593

                     55                     56                     57
                     A"                     A"                     A"
 Frequencies --    874.2135               883.9024               897.3446
 Red. masses --      2.7640                 1.8441                 1.8227
 Frc consts  --      1.2446                 0.8489                 0.8648
 IR Inten    --      0.0002                19.8966                 0.3272

                     58                     59                     60
                     A'                     A'                     A'
 Frequencies --    899.1487               911.0123               913.0442
 Red. masses --      6.9035                 5.0339                 5.8139
 Frc consts  --      3.2884                 2.4615                 2.8556
 IR Inten    --      3.3137                 0.5918                 0.1674

                     61                     62                     63
                     A"                     A"                     A"
 Frequencies --    918.3458               921.7698               928.8024
 Red. masses --      1.6229                 2.5386                 3.1246
 Frc consts  --      0.8064                 1.2709                 1.5881
 IR Inten    --     12.8728                20.4261                23.2764

                     64                     65                     66
                     A"                     A"                     A"
 Frequencies --    938.2157               971.6452               976.9132
 Red. masses --      1.6186                 1.3218                 1.3561
 Frc consts  --      0.8395                 0.7353                 0.7625
 IR Inten    --      9.2968                 0.0190                 2.3754

                     67                     68                     69
                     A"                     A'                     A"
 Frequencies --    991.7616               993.1233               995.8417
 Red. masses --      1.2954                 6.0338                 1.3026
 Frc consts  --      0.7507                 3.5063                 0.7611
 IR Inten    --      0.0608                 0.5141                 1.4458

                     70                     71                     72
                     A"                     A"                     A'
 Frequencies --    998.8691              1001.3466              1055.8206
 Red. masses --      1.2915                 1.3082                 4.4335
 Frc consts  --      0.7592                 0.7728                 2.9119
 IR Inten    --      0.1360                 0.0246                 6.9843

                     73                     74                     75
                     A'                     A'                     A'
 Frequencies --   1065.7583              1081.2997              1102.2384
 Red. masses --      2.5018                 3.8435                 2.6953
 Frc consts  --      1.6742                 2.6477                 1.9293
 IR Inten    --      2.6585                 1.3463                15.1199

                     76                     77                     78
                     A'                     A'                     A'
 Frequencies --   1120.9007              1137.4010              1152.6128
 Red. masses --      2.6887                 2.6087                 2.2105
 Frc consts  --      1.9903                 1.9884                 1.7302
 IR Inten    --      2.5788                 2.0350                 1.0861

                     79                     80                     81
                     A'                     A'                     A'
 Frequencies --   1178.2036              1179.3431              1191.5228
 Red. masses --      2.0014                 1.6569                 1.3378
 Frc consts  --      1.6369                 1.3578                 1.1190
 IR Inten    --      0.4223                 0.2865                 1.3450

                     82                     83                     84
                     A'                     A'                     A'
 Frequencies --   1204.0017              1217.1811              1219.0418
 Red. masses --      1.2149                 1.3737                 1.4666
 Frc consts  --      1.0376                 1.1991                 1.2841
 IR Inten    --      8.4143                10.2152                 0.5235

                     85                     86                     87
                     A'                     A'                     A'
 Frequencies --   1220.5211              1248.7617              1262.6177
 Red. masses --      1.3797                 1.7422                 1.6319
 Frc consts  --      1.2110                 1.6007                 1.5328
 IR Inten    --      0.1027                 0.0730                 2.0103

                     88                     89                     90
                     A'                     A'                     A'
 Frequencies --   1267.6707              1280.2019              1297.2376
 Red. masses --      1.8225                 1.7436                 2.0553
 Frc consts  --      1.7255                 1.6837                 2.0378
 IR Inten    --      0.4035                 0.8998                 1.7698

                     91                     92                     93
                     A'                     A'                     A'
 Frequencies --   1317.6447              1344.8116              1359.5213
 Red. masses --      2.3614                 2.5176                 3.5831
 Frc consts  --      2.4155                 2.6826                 3.9019
 IR Inten    --      6.9981                 7.4221                 4.5734

                     94                     95                     96
                     A'                     A'                     A'
 Frequencies --   1368.3625              1379.1273              1390.1535
 Red. masses --      3.3635                 4.2447                 2.8296
 Frc consts  --      3.7106                 4.7567                 3.2218
 IR Inten    --      1.6432                 0.2539                 0.4474

                     97                     98                     99
                     A'                     A'                     A'
 Frequencies --   1404.9105              1412.4924              1431.4487
 Red. masses --      4.1426                 7.4179                 3.9590
 Frc consts  --      4.8174                 8.7197                 4.7796
 IR Inten    --      0.8371                 0.2546                 2.3317

                    100                    101                    102
                     A'                     A'                     A'
 Frequencies --   1439.7805              1445.1525              1453.1443
 Red. masses --      4.4250                 4.0766                 2.3158
 Frc consts  --      5.4045                 5.0162                 2.8811
 IR Inten    --      4.8856                 1.1605                 8.6694

                    103                    104                    105
                     A'                     A'                     A'
 Frequencies --   1458.8558              1467.3216              1487.3174
 Red. masses --      2.7441                 2.5108                 2.5889
 Frc consts  --      3.4409                 3.1851                 3.3742
 IR Inten    --      4.1434                 1.2104                 4.2861

                    106                    107                    108
                     A'                     A'                     A'
 Frequencies --   1496.9291              1506.0076              1532.2164
 Red. masses --      3.5077                 4.3413                 3.6033
 Frc consts  --      4.6310                 5.8013                 4.9842
 IR Inten    --      5.4853                 1.2806                 2.2028

                    109                    110                    111
                     A'                     A'                     A'
 Frequencies --   1543.8833              1546.9810              1555.2208
 Red. masses --      3.9488                 6.1363                 4.8350
 Frc consts  --      5.5455                 8.6522                 6.8902
 IR Inten    --      1.9326                 0.5936                 7.3944

                    112                    113                    114
                     A'                     A'                     A'
 Frequencies --   1572.4000              1611.9798              1641.9569
 Red. masses --      4.7799                 6.9362                 6.7199
 Frc consts  --      6.9630                10.6191                10.6742
 IR Inten    --      1.4470                 0.6291                 7.3137

                    115                    116                    117
                     A'                     A'                     A'
 Frequencies --   1648.5807              1658.1915              1666.9920
 Red. masses --      6.5795                 7.1579                 6.1459
 Frc consts  --     10.5358                11.5959                10.0625
 IR Inten    --      5.6599                 3.3817                 0.2236

                    118                    119                    120
                     A'                     A'                     A'
 Frequencies --   1683.6048              1693.9655              1699.2888
 Red. masses --      7.2283                 6.5397                 6.4129
 Frc consts  --     12.0716                11.0565                10.9103
 IR Inten    --      2.4513                 0.0269                10.0716

                    121                    122                    123
                     A'                     A'                     A'
 Frequencies --   1713.4062              1715.2073              3186.3095
 Red. masses --      7.4552                 7.3038                 1.0894
 Frc consts  --     12.8952                12.6599                 6.5163
 IR Inten    --      1.4631                 2.6263                 5.2332

                    124                    125                    126
                     A'                     A'                     A'
 Frequencies --   3186.4590              3187.9676              3190.2129
 Red. masses --      1.0905                 1.0875                 1.0866
 Frc consts  --      6.5239                 6.5117                 6.5157
 IR Inten    --      4.0464                 1.8225                 1.4751

                    127                    128                    129
                     A'                     A'                     A'
 Frequencies --   3190.6470              3194.0380              3195.5728
 Red. masses --      1.0868                 1.0889                 1.0901
 Frc consts  --      6.5189                 6.5450                 6.5587
 IR Inten    --      2.3150                 0.4995                11.4003

                    130                    131                    132
                     A'                     A'                     A'
 Frequencies --   3198.5318              3201.5911              3207.2680
 Red. masses --      1.0911                 1.0895                 1.0977
 Frc consts  --      6.5766                 6.5799                 6.6525
 IR Inten    --     17.1784                10.4466                22.6251

                    133                    134                    135
                     A'                     A'                     A'
 Frequencies --   3213.9728              3215.8290              3219.9719
 Red. masses --      1.0930                 1.0971                 1.0951
 Frc consts  --      6.6522                 6.6846                 6.6896
 IR Inten    --     10.8833                36.7934                22.3286

                    136                    137                    138
                     A'                     A'                     A'
 Frequencies --   3230.4992              3237.6448              3252.7683
 Red. masses --      1.0947                 1.0905                 1.0896
 Frc consts  --      6.7310                 6.7352                 6.7924
 IR Inten    --      3.5533                16.3794                19.0721

 - Thermochemistry -
 -------------------
 Temperature   298.150 Kelvin.  Pressure   1.00000 Atm.
 Atom     1 has atomic number  6 and mass  12.00000

 Molecular mass:   400.12520 amu.
 Principal axes and moments of inertia in atomic units:
                           1         2         3
     Eigenvalues --  4719.98025********************
           X            0.69172   0.72217   0.00000
           Y            0.72217  -0.69172   0.00000
           Z            0.00000   0.00000   1.00000
 This molecule is an asymmetric top.
 Rotational symmetry number  1.
 Warning -- assumption of classical behavior for rotation
           may cause significant error
 Rotational temperatures (Kelvin)      0.01835     0.00421     0.00342
 Rotational constants (GHZ):           0.38236     0.08772     0.07135
 Zero-point vibrational energy     990611.7 (Joules/Mol)
                                  236.76187 (Kcal/Mol)
 Warning -- explicit consideration of  35 degrees of freedom as
           vibrations may cause significant error
 Vibrational temperatures:     43.51    76.81   120.63   135.68   189.08
          (Kelvin)            218.43   230.19   277.22   328.19   345.23
                              370.00   388.09   425.21   451.24   473.70
                              523.65   544.78   561.26   568.32   626.68
                              643.58   658.10   665.85   691.31   732.52
                              760.40   780.72   781.07   783.27   812.43
                              825.76   838.90   839.25   858.14   879.73
                              935.51   945.75   945.75   977.34   978.42
                             1001.56  1039.25  1046.29  1076.52  1105.86
                             1124.93  1134.89  1141.28  1163.55  1176.42
                             1179.91  1195.07  1219.67  1245.36  1257.80
                             1271.74  1291.08  1293.67  1310.74  1313.67
                             1321.29  1326.22  1336.34  1349.88  1397.98
                             1405.56  1426.92  1428.88  1432.79  1437.15
                             1440.71  1519.09  1533.39  1555.75  1585.87
                             1612.72  1636.46  1658.35  1695.17  1696.81
                             1714.33  1732.29  1751.25  1753.93  1756.06
                             1796.69  1816.62  1823.89  1841.92  1866.43
                             1895.79  1934.88  1956.05  1968.77  1984.25
                             2000.12  2021.35  2032.26  2059.53  2071.52
                             2079.25  2090.75  2098.97  2111.15  2139.92
                             2153.74  2166.81  2204.51  2221.30  2225.76
                             2237.61  2262.33  2319.28  2362.41  2371.94
                             2385.76  2398.43  2422.33  2437.24  2444.89
                             2465.21  2467.80  4584.38  4584.60  4586.77
                             4590.00  4590.62  4595.50  4597.71  4601.97
                             4606.37  4614.54  4624.18  4626.85  4632.82
                             4647.96  4658.24  4680.00

 Zero-point correction=                           0.377304 (Hartree/Particle)
 Thermal correction to Energy=                    0.396768
 Thermal correction to Enthalpy=                  0.397712
 Thermal correction to Gibbs Free Energy=         0.330641
 Sum of electronic and zero-point Energies=          -1228.753008
 Sum of electronic and thermal Energies=             -1228.733544
 Sum of electronic and thermal Enthalpies=           -1228.732599
 Sum of electronic and thermal Free Energies=        -1228.799671

                     E (Thermal)             CV                S
                      KCal/Mol        Cal/Mol-Kelvin    Cal/Mol-Kelvin
 Total                  248.976             86.605            141.163
 Electronic               0.000              0.000              0.000
 Translational            0.889              2.981             43.851
 Rotational               0.889              2.981             36.150
 Vibrational            247.198             80.643             61.162
 Vibration     1          0.594              1.984              5.813
 Vibration     2          0.596              1.976              4.688
 Vibration     3          0.601              1.960              3.799
 Vibration     4          0.603              1.953              3.569
 Vibration     5          0.612              1.922              2.925
 Vibration     6          0.619              1.901              2.649
 Vibration     7          0.622              1.891              2.550
 Vibration     8          0.635              1.850              2.202
 Vibration     9          0.651              1.798              1.894
 Vibration    10          0.657              1.779              1.803
 Vibration    11          0.667              1.751              1.681
 Vibration    12          0.674              1.729              1.598
 Vibration    13          0.690              1.682              1.442
 Vibration    14          0.701              1.648              1.343
 Vibration    15          0.712              1.617              1.264
 Vibration    16          0.737              1.546              1.105
 Vibration    17          0.749              1.516              1.045
 Vibration    18          0.758              1.491              1.000
 Vibration    19          0.762              1.481              0.981
 Vibration    20          0.796              1.393              0.841
 Vibration    21          0.806              1.367              0.804
 Vibration    22          0.816              1.345              0.774
 Vibration    23          0.820              1.333              0.758
 Vibration    24          0.837              1.293              0.709
 Vibration    25          0.864              1.230              0.636
 Vibration    26          0.883              1.187              0.591
 Vibration    27          0.898              1.156              0.560
 Vibration    28          0.898              1.155              0.559
 Vibration    29          0.900              1.152              0.556
 Vibration    30          0.920              1.108              0.515
 Vibration    31          0.930              1.088              0.497
 Vibration    32          0.940              1.068              0.480
 Vibration    33          0.940              1.067              0.479
 Vibration    34          0.954              1.039              0.456
 Vibration    35          0.971              1.008              0.430

 Optimization completed.
    -- Stationary point found.
 Normal termination of Gaussian 09 at Sun Jul 28 04:28:19 2019.
