 Gaussian 09, Revision D.01,
 Gaussian 09:  AM64L-G09RevD.01 24-Apr-2013

 ----------------------------------------------------------------------
 #P wB97XD/def2tzvp opt=(tight) freq integral(Grid=ultrafine) # SCF(Max
 Cycle=380) 5d 7f GFPrint
 ----------------------------------------------------------------------

 ---------------------------------------
 The PBEPBE optimization and frequencies
 ---------------------------------------
 Symbolic Z-matrix:
 Charge =  0 Multiplicity = 1

 SCF Done:  E(RwB97XD) =  -78.4681308005     A.U. after   15 cycles
 SCF Done:  E(RwB97XD) =  -78.4681388810     A.U. after   10 cycles
 SCF Done:  E(RwB97XD) =  -78.4681394752     A.U. after    8 cycles
 SCF Done:  E(RwB97XD) =  -78.4681396229     A.U. after    9 cycles
 SCF Done:  E(RwB97XD) =  -78.4681397312     A.U. after    9 cycles
 SCF Done:  E(RwB97XD) =  -78.4681397803     A.U. after    9 cycles
 SCF Done:  E(RwB97XD) =  -78.4681397811     A.U. after    7 cycles
 Optimization completed.
    -- Stationary point found.

 1\1\GINC-CN514-04-R\FOpt\RwB97XD\def2TZVP\C2H4\MINENKY\09-Jul-2021\0\\
 #P wB97XD/def2tzvp opt=(tight) freq integral(Grid=ultrafine) # SCF(Max
 Cycle=380) 5d 7f GFPrint\\The PBEPBE optimization and frequencies\\0,1
 \C,0.5919451927,0.0223680294,-0.0312922227\C,-0.8417506977,-0.19056403
 39,-0.0361543097\H,-1.3088507262,0.8128247022,0.0042148655\H,0.6046495
 219,0.0760238513,1.0893872415\H,1.0203658019,0.9653428623,-0.387967011
 6\H,1.2039039074,-0.8417844113,-0.290338563\\Version=AM64L-G09RevD.01\
 State=1-A\HF=-78.4681398\RMSD=9.375e-09\RMSF=1.020e-06\Dipole=0.710144

 Normal termination of Gaussian 09 at Fri Jul  9 19:20:43 2021.

 ---------------------------------------------------------------------
 #P Geom=AllCheck Guess=TCheck SCRF=Check GenChk RwB97XD/def2TZVP Freq
 ---------------------------------------------------------------------

 Structure from the checkpoint file:  "m1_00_4218-50-22_C2H4_wB97XD.chk"
 ---------------------------------------
 The PBEPBE optimization and frequencies
 ---------------------------------------
 Charge =  0 Multiplicity = 1

                         Standard orientation:
 ---------------------------------------------------------------------
 Center     Atomic      Atomic             Coordinates (Angstroms)
 Number     Number       Type             X           Y           Z
 ---------------------------------------------------------------------
      1          6           0        0.590675    0.022666   -0.030523
      2          6           0       -0.842895   -0.190968   -0.039844
      3          1           0       -1.310611    0.811912    0.005695
      4          1           0        0.600896    0.069407    1.090492
      5          1           0        1.019379    0.968046   -0.380428
      6          1           0        1.203655   -0.839556   -0.293557
 ---------------------------------------------------------------------

 SCF Done:  E(RwB97XD) =  -78.4681397811     A.U. after    1 cycles

 The electronic state is 1-A.
 Alpha  occ. eigenvalues --  -10.32696 -10.30218  -0.88518  -0.67349  -0.54163
 Alpha  occ. eigenvalues --   -0.51768  -0.45999  -0.30289
 Alpha virt. eigenvalues --   -0.00701   0.11559   0.15968   0.16648   0.19372
 Alpha virt. eigenvalues --    0.24816   0.27564   0.30022   0.32579   0.35232
 Alpha virt. eigenvalues --    0.36283   0.39752   0.45168   0.49391   0.50023

 Mulliken charges:
               1
     1  C   -0.267198
     2  C   -0.246138
     3  H    0.102442
     4  H    0.151128
     5  H    0.120532
     6  H    0.139234
 Sum of Mulliken charges =   0.00000

 Dipole moment (field-independent basis, Debye):
    X=              1.8035    Y=              1.7214    Z=              0.2654  Tot=              2.5073
 Quadrupole moment (field-independent basis, Debye-Ang):
   XX=            -15.9573   YY=            -15.2011   ZZ=            -12.8647
   XY=             -2.6037   XZ=              0.2504   YZ=              0.0345

  Exact polarizability:  31.496   0.064  25.508  -0.074   0.301  22.029
 Approx polarizability:  29.529  -0.357  24.865   0.490   0.363  23.898

                      1                      2                      3
                      A                      A                      A
 Frequencies --    447.1345               636.7845               965.8863
 Red. masses --      1.3096                 1.0819                 1.0658
 Frc consts  --      0.1543                 0.2585                 0.5859
 IR Inten    --      7.3446                42.3184                21.3858

                      4                      5                      6
                      A                      A                      A
 Frequencies --   1138.8716              1264.7243              1310.4317
 Red. masses --      2.8016                 1.3181                 1.3636
 Frc consts  --      2.1410                 1.2422                 1.3796
 IR Inten    --      3.5612                13.7099                47.8114

                      7                      8                      9
                      A                      A                      A
 Frequencies --   1354.5626              1515.0491              2856.0032
 Red. masses --      1.0539                 1.1367                 1.0607
 Frc consts  --      1.1393                 1.5372                 5.0976
 IR Inten    --      9.8145                 3.4728                15.7981

                     10                     11                     12
                      A                      A                      A
 Frequencies --   2951.9442              3038.2623              3125.6492
 Red. masses --      1.0824                 1.0675                 1.1025
 Frc consts  --      5.5571                 5.8060                 6.3460
 IR Inten    --     76.9446                40.9815                17.8151

 - Thermochemistry -
 -------------------
 Temperature   298.150 Kelvin.  Pressure   1.00000 Atm.
 Atom     1 has atomic number  6 and mass  12.00000

 Molecular mass:    28.03130 amu.
 Principal axes and moments of inertia in atomic units:
                           1         2         3
     Eigenvalues --    14.71413  66.97791  71.30392
           X            0.99771  -0.06748  -0.00333
           Y            0.06741   0.99756  -0.01795
           Z            0.00453   0.01768   0.99983
 This molecule is an asymmetric top.
 Rotational symmetry number  1.
 Rotational temperatures (Kelvin)      5.88644     1.29317     1.21471
 Rotational constants (GHZ):         122.65365    26.94532    25.31055
 Zero-point vibrational energy     123247.1 (Joules/Mol)
                                   29.45676 (Kcal/Mol)
 Warning -- explicit consideration of   1 degrees of freedom as
           vibrations may cause significant error
 Vibrational temperatures:    643.33   916.19  1389.69  1638.58  1819.65
          (Kelvin)           1885.42  1948.91  2179.82  4109.15  4247.18
                             4371.38  4497.11

 Zero-point correction=                           0.046942 (Hartree/Particle)
 Thermal correction to Energy=                    0.050283
 Thermal correction to Enthalpy=                  0.051227
 Thermal correction to Gibbs Free Energy=         0.024494
 Sum of electronic and zero-point Energies=            -78.421197
 Sum of electronic and thermal Energies=               -78.417857
 Sum of electronic and thermal Enthalpies=             -78.416913
 Sum of electronic and thermal Free Energies=          -78.443646

                     E (Thermal)             CV                S
                      KCal/Mol        Cal/Mol-Kelvin    Cal/Mol-Kelvin
 Total                   31.553              9.453             56.265
 Electronic               0.000              0.000              0.000
 Translational            0.889              2.981             35.927
 Rotational               0.889              2.981             18.892
 Vibrational             29.775              3.491              1.446
 Vibration     1          0.806              1.367              0.804

 Optimization completed.
    -- Stationary point found.

 1\1\GINC-CN514-04-R\Freq\RwB97XD\def2TZVP\C2H4\MINENKY\09-Jul-2021\0\\
 #P Geom=AllCheck Guess=TCheck SCRF=Check GenChk RwB97XD/def2TZVP Freq\
 \The PBEPBE optimization and frequencies\\0,1\C,0.5919451927,0.0223680
 294,-0.0312922227\C,-0.8417506977,-0.1905640339,-0.0361543097\H,-1.308
 8507262,0.8128247022,0.0042148655\H,0.6046495219,0.0760238513,1.089387
 2415\H,1.0203658019,0.9653428623,-0.3879670116\H,1.2039039074,-0.84178
 44113,-0.290338563\\Version=AM64L-G09RevD.01\State=1-A\HF=-78.4681398\
 RMSD=1.357e-09\RMSF=1.015e-06\ZeroPoint=0.0469423\Thermal=0.0502826\Di

 Normal termination of Gaussian 09 at Fri Jul  9 19:21:07 2021.
