 Gaussian 09, Revision D.01,
 Gaussian 09:  AM64L-G09RevD.01 24-Apr-2013

 ----------------------------------------------------------------------
 #P wB97XD/def2tzvp opt=(tight) freq integral(Grid=ultrafine) # SCF(Max
 Cycle=380) 5d 7f GFPrint
 ----------------------------------------------------------------------

 ---------------------------------------
 The PBEPBE optimization and frequencies
 ---------------------------------------
 Symbolic Z-matrix:
 Charge =  0 Multiplicity = 1

 SCF Done:  E(RwB97XD) =  -1229.12890201     A.U. after   16 cycles
 SCF Done:  E(RwB97XD) =  -1229.13210063     A.U. after   14 cycles
 SCF Done:  E(RwB97XD) =  -1229.13405926     A.U. after   14 cycles
 SCF Done:  E(RwB97XD) =  -1229.13483013     A.U. after   12 cycles
 SCF Done:  E(RwB97XD) =  -1229.13486678     A.U. after   11 cycles
 SCF Done:  E(RwB97XD) =  -1229.13486980     A.U. after   10 cycles
 SCF Done:  E(RwB97XD) =  -1229.13487003     A.U. after    8 cycles
 SCF Done:  E(RwB97XD) =  -1229.13487006     A.U. after    6 cycles
 SCF Done:  E(RwB97XD) =  -1229.13487007     A.U. after    4 cycles
 SCF Done:  E(RwB97XD) =  -1229.13487007     A.U. after    3 cycles
 SCF Done:  E(RwB97XD) =  -1229.13487007     A.U. after    3 cycles
 Optimization completed.
    -- Stationary point found.
 Normal termination of Gaussian 09 at Sat Jul 27 17:23:19 2019.

 ---------------------------------------------------------------------
 #P Geom=AllCheck Guess=TCheck SCRF=Check GenChk RwB97XD/def2TZVP Freq
 ---------------------------------------------------------------------

 Structure from the checkpoint file:  "m1_00_109278-08-2-C32H16_wB97XD.chk"
 ---------------------------------------
 The PBEPBE optimization and frequencies
 ---------------------------------------
 Charge =  0 Multiplicity = 1

                         Standard orientation:
 ---------------------------------------------------------------------
 Center     Atomic      Atomic             Coordinates (Angstroms)
 Number     Number       Type             X           Y           Z
 ---------------------------------------------------------------------
      1          6           0        4.512401    0.797387    0.182350
      2          6           0        5.857516    0.423682    0.126667
      3          6           0        6.216925   -0.871056   -0.190645
      4          6           0        5.241340   -1.818884   -0.461326
      5          6           0        3.892153   -1.487234   -0.401844
      6          6           0        3.509390   -0.166554   -0.068866
      7          6           0        2.127322    0.193023    0.004713
      8          6           0        1.125757   -0.809370   -0.151836
      9          6           0        1.559050   -2.109429   -0.598192
     10          6           0        2.859815   -2.428973   -0.720797
     11          6           0        1.769952    1.534308    0.239901
     12          6           0        0.401967    1.900477    0.170348
     13          6           0       -0.584756    0.892188    0.086875
     14          6           0       -0.221941   -0.479540    0.061759
     15          6           0       -1.962690    1.268226   -0.034228
     16          6           0       -2.325188    2.621771   -0.099293
     17          6           0       -1.310629    3.612956    0.014361
     18          6           0       -0.012649    3.267330    0.152481
     19          6           0       -2.972382    0.275324   -0.129757
     20          6           0       -4.313705    0.649302   -0.307615
     21          6           0       -4.642301    2.018247   -0.404120
     22          6           0       -3.678496    2.974252   -0.293373
     23          6           0       -2.631123   -1.097665    0.047229
     24          6           0       -3.660940   -2.063715    0.109517
     25          6           0       -5.010452   -1.658299   -0.131525
     26          6           0       -5.321250   -0.361760   -0.341975
     27          6           0       -1.279668   -1.479207    0.240227
     28          6           0       -1.033053   -2.774980    0.679615
     29          6           0       -2.052135   -3.718514    0.773582
     30          6           0       -3.344587   -3.384516    0.448092
     31          6           0        4.111367    2.133301    0.487857
     32          6           0        2.809106    2.484350    0.500382
     33          1           0       -4.135449   -4.123314    0.497365
     34          1           0       -0.037750   -3.059574    0.985320
     35          1           0       -1.817287   -4.720637    1.109142
     36          1           0       -5.784976   -2.415906   -0.121180
     37          1           0       -6.349230   -0.062056   -0.507918
     38          1           0       -5.678857    2.298886   -0.548411
     39          1           0       -3.939071    4.024234   -0.354089
     40          1           0       -1.596500    4.657226   -0.027142
     41          1           0        0.729719    4.049742    0.208413
     42          1           0        3.147535   -3.404963   -1.093406
     43          1           0        0.812324   -2.826442   -0.903261
     44          1           0        6.618643    1.167037    0.331865
     45          1           0        7.263012   -1.146232   -0.235089
     46          1           0        5.524397   -2.830755   -0.726003
     47          1           0        2.549252    3.505769    0.737251
     48          1           0        4.877551    2.868407    0.703761
 ---------------------------------------------------------------------

 SCF Done:  E(RwB97XD) =  -1229.13487007     A.U. after    1 cycles

 The electronic state is 1-A.
 Alpha  occ. eigenvalues --  -10.30864 -10.30665 -10.30638 -10.30516 -10.30435
 Alpha  occ. eigenvalues --  -10.30391 -10.30333 -10.30238 -10.30224 -10.30132
 Alpha  occ. eigenvalues --  -10.30108 -10.30081 -10.30077 -10.30011 -10.30004
 Alpha  occ. eigenvalues --  -10.29973 -10.29281 -10.29257 -10.29221 -10.29205
 Alpha  occ. eigenvalues --  -10.29200 -10.29176 -10.29161 -10.29147 -10.29127
 Alpha  occ. eigenvalues --  -10.29124 -10.29109 -10.29097 -10.29057 -10.29044
 Alpha  occ. eigenvalues --  -10.29028 -10.29024  -1.01581  -0.99924  -0.97601
 Alpha  occ. eigenvalues --   -0.96521  -0.94210  -0.93455  -0.91541  -0.90955
 Alpha  occ. eigenvalues --   -0.88116  -0.86908  -0.86168  -0.84780  -0.84287
 Alpha  occ. eigenvalues --   -0.83335  -0.82115  -0.79899  -0.74745  -0.74522
 Alpha  occ. eigenvalues --   -0.73852  -0.72803  -0.71597  -0.71315  -0.70396
 Alpha  occ. eigenvalues --   -0.68255  -0.65281  -0.64173  -0.63343  -0.61810
 Alpha  occ. eigenvalues --   -0.61491  -0.60564  -0.60132  -0.58929  -0.57767
 Alpha  occ. eigenvalues --   -0.56672  -0.56143  -0.54533  -0.53996  -0.53531
 Alpha  occ. eigenvalues --   -0.52893  -0.52535  -0.52048  -0.51404  -0.51122
 Alpha  occ. eigenvalues --   -0.50733  -0.50083  -0.49761  -0.49525  -0.48583
 Alpha  occ. eigenvalues --   -0.48028  -0.47697  -0.47026  -0.46663  -0.46070
 Alpha  occ. eigenvalues --   -0.45440  -0.45229  -0.44213  -0.43761  -0.42735
 Alpha  occ. eigenvalues --   -0.42374  -0.41468  -0.40852  -0.39912  -0.39575
 Alpha  occ. eigenvalues --   -0.38913  -0.36157  -0.35245  -0.33931  -0.33371
 Alpha  occ. eigenvalues --   -0.31831  -0.30413  -0.28382  -0.24643
 Alpha virt. eigenvalues --   -0.02992   0.00583   0.02177   0.03644   0.04259
 Alpha virt. eigenvalues --    0.06112   0.06701   0.08123   0.12335   0.12555
 Alpha virt. eigenvalues --    0.12588   0.12786   0.12877   0.13634   0.13993

 Mulliken charges:
               1
     1  C    0.142890
     2  C   -0.174385
     3  C   -0.085790
     4  C   -0.172166
     5  C    0.119029
     6  C   -0.029406
     7  C   -0.001018
     8  C    0.161579
     9  C   -0.372009
    10  C   -0.175566
    11  C    0.135185
    12  C    0.186452
    13  C   -0.083822
    14  C    0.091506
    15  C    0.034829
    16  C    0.166234
    17  C   -0.198200
    18  C   -0.225858
    19  C   -0.052059
    20  C    0.158833
    21  C   -0.169491
    22  C   -0.175747
    23  C   -0.039285
    24  C    0.169937
    25  C   -0.185819
    26  C   -0.179961
    27  C    0.119706
    28  C   -0.345490
    29  C   -0.072003
    30  C   -0.193103
    31  C   -0.205074
    32  C   -0.211184
    33  H    0.108732
    34  H    0.185643
    35  H    0.116906
    36  H    0.106257
    37  H    0.105380
    38  H    0.106102
    39  H    0.106352
    40  H    0.102863
    41  H    0.093625
    42  H    0.107307
    43  H    0.183976
    44  H    0.109209
    45  H    0.115465
    46  H    0.109432
    47  H    0.100709
    48  H    0.103299
 Sum of Mulliken charges =   0.00000

 Dipole moment (field-independent basis, Debye):
    X=             -0.0703    Y=             -0.0464    Z=              0.0256  Tot=              0.0881
 Quadrupole moment (field-independent basis, Debye-Ang):
   XX=           -155.6482   YY=           -157.1883   ZZ=           -189.7945
   XY=              0.2584   XZ=              1.5184   YZ=              1.1005

  Exact polarizability: 665.730 -11.663 436.057   6.572   1.922 167.329
 Approx polarizability: 684.224 -19.640 556.563  13.854   5.254 237.130

                      1                      2                      3
                      A                      A                      A
 Frequencies --     38.8494                54.8989                85.3543
 Red. masses --      5.6082                 5.0983                 5.2632
 Frc consts  --      0.0050                 0.0091                 0.0226
 IR Inten    --      0.1837                 0.0005                 0.5026

                      4                      5                      6
                      A                      A                      A
 Frequencies --    112.1184               119.9634               156.4809
 Red. masses --      4.8644                 4.8673                 5.3651
 Frc consts  --      0.0360                 0.0413                 0.0774
 IR Inten    --      0.8249                 1.5765                 0.5795

                      7                      8                      9
                      A                      A                      A
 Frequencies --    192.8869               209.6214               212.8623
 Red. masses --      4.0078                 4.4472                 4.8088
 Frc consts  --      0.0879                 0.1151                 0.1284
 IR Inten    --      0.6431                 4.1775                 0.1503

                     10                     11                     12
                      A                      A                      A
 Frequencies --    258.7189               263.5083               279.0789
 Red. masses --      5.5661                 5.3770                 4.4615
 Frc consts  --      0.2195                 0.2200                 0.2047
 IR Inten    --      1.9672                 1.7748                 0.3375

                     13                     14                     15
                      A                      A                      A
 Frequencies --    289.8221               300.4457               344.1580
 Red. masses --      5.6849                 4.5444                 4.7040
 Frc consts  --      0.2813                 0.2417                 0.3283
 IR Inten    --      0.1849                 0.2649                 0.3179

                     16                     17                     18
                      A                      A                      A
 Frequencies --    362.4241               384.3514               420.3415
 Red. masses --      5.4491                 5.3855                 6.5638
 Frc consts  --      0.4217                 0.4687                 0.6833
 IR Inten    --      1.2515                 0.5248                 0.5454

                     19                     20                     21
                      A                      A                      A
 Frequencies --    424.3530               430.1830               467.8270
 Red. masses --      6.9359                 4.6250                 4.8838
 Frc consts  --      0.7359                 0.5043                 0.6298
 IR Inten    --      0.6179                 0.9676                 1.3811

                     22                     23                     24
                      A                      A                      A
 Frequencies --    478.8069               483.5622               494.9704
 Red. masses --      4.2633                 4.5610                 5.5955
 Frc consts  --      0.5759                 0.6284                 0.8077
 IR Inten    --      0.4002                 0.8763                 2.0189

                     25                     26                     27
                      A                      A                      A
 Frequencies --    505.3189               515.1099               530.4719
 Red. masses --      6.1395                 4.1992                 3.8182
 Frc consts  --      0.9237                 0.6565                 0.6331
 IR Inten    --      0.9128                 3.0934                 3.3043

                     28                     29                     30
                      A                      A                      A
 Frequencies --    542.3511               547.5186               549.0403
 Red. masses --      5.1464                 4.1283                 5.2808
 Frc consts  --      0.8919                 0.7292                 0.9379
 IR Inten    --      0.6636                 0.5740                 0.1122

                     31                     32                     33
                      A                      A                      A
 Frequencies --    554.5950               565.4139               583.8383
 Red. masses --      5.4726                 4.2567                 3.6158
 Frc consts  --      0.9917                 0.8018                 0.7262
 IR Inten    --      2.9082                 1.1818                 6.4770

                     34                     35                     36
                      A                      A                      A
 Frequencies --    612.3737               626.4054               630.3844
 Red. masses --      4.0683                 6.8169                 6.3590
 Frc consts  --      0.8989                 1.5760                 1.4889
 IR Inten    --      0.2931                 1.1203                 3.1257

                     37                     38                     39
                      A                      A                      A
 Frequencies --    651.1701               664.7971               681.6279
 Red. masses --      3.8253                 4.2686                 6.2983
 Frc consts  --      0.9557                 1.1115                 1.7241
 IR Inten    --     10.9407                 6.6253                 1.1281

                     40                     41                     42
                      A                      A                      A
 Frequencies --    699.0911               720.0653               724.4768
 Red. masses --      6.3392                 5.0898                 3.2816
 Frc consts  --      1.8254                 1.5549                 1.0148
 IR Inten    --      1.1230                 2.1293                 6.6042

                     43                     44                     45
                      A                      A                      A
 Frequencies --    730.9389               752.9366               771.6816
 Red. masses --      4.1511                 5.4172                 2.3005
 Frc consts  --      1.3067                 1.8094                 0.8071
 IR Inten    --      2.5280                18.7472                16.7025

                     46                     47                     48
                      A                      A                      A
 Frequencies --    780.5019               785.6082               790.8841
 Red. masses --      4.0495                 1.2652                 1.5579
 Frc consts  --      1.4535                 0.4601                 0.5742
 IR Inten    --      2.5878                13.3890                 4.0698

                     49                     50                     51
                      A                      A                      A
 Frequencies --    802.4324               826.6792               838.3576
 Red. masses --      1.7356                 1.8521                 4.9530
 Frc consts  --      0.6584                 0.7457                 2.0510
 IR Inten    --      7.9971                42.6636                 9.1362

                     52                     53                     54
                      A                      A                      A
 Frequencies --    848.4822               849.2216               862.3613
 Red. masses --      2.3327                 3.4605                 2.4678
 Frc consts  --      0.9895                 1.4704                 1.0813
 IR Inten    --      4.3421                 2.6383                 2.9311

                     55                     56                     57
                      A                      A                      A
 Frequencies --    868.7937               877.1244               883.2024
 Red. masses --      4.1868                 2.1072                 2.1264
 Frc consts  --      1.8620                 0.9551                 0.9773
 IR Inten    --      9.5709                88.6620                 8.8361

                     58                     59                     60
                      A                      A                      A
 Frequencies --    894.8358               896.4521               912.2308
 Red. masses --      6.5768                 6.6481                 8.8926
 Frc consts  --      3.1028                 3.1478                 4.3600
 IR Inten    --      2.4984                15.1198                 2.2980

                     61                     62                     63
                      A                      A                      A
 Frequencies --    933.8231               951.9194               966.4164
 Red. masses --      1.4499                 1.4110                 5.4546
 Frc consts  --      0.7449                 0.7533                 3.0015
 IR Inten    --      0.1603                 1.9578                 2.2161

                     64                     65                     66
                      A                      A                      A
 Frequencies --    979.0251               981.5454               989.5656
 Red. masses --      3.5532                 1.4728                 1.3371
 Frc consts  --      2.0066                 0.8360                 0.7714
 IR Inten    --      1.2926                 0.2697                 0.8776

                     67                     68                     69
                      A                      A                      A
 Frequencies --    992.3662               995.0547               998.4712
 Red. masses --      1.3070                 1.3347                 1.3090
 Frc consts  --      0.7584                 0.7786                 0.7689
 IR Inten    --      0.3743                 0.1465                 0.8179

                     70                     71                     72
                      A                      A                      A
 Frequencies --   1001.6591              1030.7202              1037.0229
 Red. masses --      1.3254                 5.2460                 1.2605
 Frc consts  --      0.7835                 3.2837                 0.7987
 IR Inten    --      1.0355                 0.8577                 0.3020

                     73                     74                     75
                      A                      A                      A
 Frequencies --   1081.8820              1106.7222              1115.2644
 Red. masses --      3.9409                 3.2798                 2.0487
 Frc consts  --      2.7177                 2.3669                 1.5014
 IR Inten    --      2.0662                 3.2022                 4.3876

                     76                     77                     78
                      A                      A                      A
 Frequencies --   1143.1643              1148.5569              1161.0133
 Red. masses --      2.0848                 1.9250                 2.1868
 Frc consts  --      1.6052                 1.4961                 1.7367
 IR Inten    --      0.9188                 2.3083                 0.1593

                     79                     80                     81
                      A                      A                      A
 Frequencies --   1173.1667              1188.9990              1192.0017
 Red. masses --      1.6152                 1.4705                 1.3771
 Frc consts  --      1.3098                 1.2248                 1.1528
 IR Inten    --      1.3182                 2.0593                 0.3813

                     82                     83                     84
                      A                      A                      A
 Frequencies --   1200.6674              1214.4670              1216.9307
 Red. masses --      1.3291                 1.3536                 1.3897
 Frc consts  --      1.1289                 1.1763                 1.2126
 IR Inten    --      2.4230                 1.1216                 5.8818

                     85                     86                     87
                      A                      A                      A
 Frequencies --   1236.0231              1254.0546              1256.6043
 Red. masses --      2.2114                 1.7923                 1.8192
 Frc consts  --      1.9906                 1.6608                 1.6925
 IR Inten    --      1.2573                 0.8806                 0.1588

                     88                     89                     90
                      A                      A                      A
 Frequencies --   1266.6325              1272.5117              1288.0413
 Red. masses --      1.7949                 1.8947                 2.4115
 Frc consts  --      1.6966                 1.8076                 2.3572
 IR Inten    --      3.2403                 0.4707                 1.4801

                     91                     92                     93
                      A                      A                      A
 Frequencies --   1300.9539              1304.6782              1325.4202
 Red. masses --      2.3773                 2.3629                 2.5843
 Frc consts  --      2.3706                 2.3698                 2.6748
 IR Inten    --     13.3711                 1.7582                 9.8617

                     94                     95                     96
                      A                      A                      A
 Frequencies --   1366.9497              1376.3493              1384.9813
 Red. masses --      4.2584                 3.5867                 3.8264
 Frc consts  --      4.6882                 4.0031                 4.3244
 IR Inten    --      6.2614                 6.7463                 3.3679

                     97                     98                     99
                      A                      A                      A
 Frequencies --   1398.2369              1411.4056              1418.0120
 Red. masses --      4.6382                 6.0382                 5.6556
 Frc consts  --      5.3427                 7.0870                 6.7002
 IR Inten    --      1.5865                 0.2855                 2.2100

                    100                    101                    102
                      A                      A                      A
 Frequencies --   1435.6722              1454.2860              1458.0436
 Red. masses --      5.7542                 3.7094                 3.3719
 Frc consts  --      6.9879                 4.6222                 4.2234
 IR Inten    --      0.2164                 2.8067                 2.3522

                    103                    104                    105
                      A                      A                      A
 Frequencies --   1462.8218              1465.2728              1473.3449
 Red. masses --      1.9768                 1.8791                 3.8198
 Frc consts  --      2.4923                 2.3770                 4.8854
 IR Inten    --      1.9321                 4.0253                 1.2127

                    106                    107                    108
                      A                      A                      A
 Frequencies --   1486.6808              1505.4513              1517.2523
 Red. masses --      3.3539                 4.3883                 3.7382
 Frc consts  --      4.3676                 5.8598                 5.0702
 IR Inten    --      7.2360                 1.8313                 0.2078

                    109                    110                    111
                      A                      A                      A
 Frequencies --   1532.7193              1554.2775              1556.2006
 Red. masses --      3.8201                 4.6408                 4.1768
 Frc consts  --      5.2875                 6.6054                 5.9597
 IR Inten    --      2.5221                 2.2942                 0.3345

                    112                    113                    114
                      A                      A                      A
 Frequencies --   1575.6586              1594.8101              1613.7208
 Red. masses --      4.4715                 4.8863                 8.1430
 Frc consts  --      6.5407                 7.3224                12.4937
 IR Inten    --      0.6139                 1.2525                 0.9608

                    115                    116                    117
                      A                      A                      A
 Frequencies --   1650.4816              1658.0711              1666.8454
 Red. masses --      6.7507                 5.8844                 6.9349
 Frc consts  --     10.8348                 9.5314                11.3522
 IR Inten    --      7.8148                 6.0476                 2.4190

                    118                    119                    120
                      A                      A                      A
 Frequencies --   1677.1235              1684.4894              1694.5215
 Red. masses --      7.1477                 6.7778                 6.5948
 Frc consts  --     11.8453                11.3312                11.1570
 IR Inten    --      0.5102                 1.0027                 3.6625

                    121                    122                    123
                      A                      A                      A
 Frequencies --   1707.4645              1712.6717              3188.1387
 Red. masses --      7.3518                 7.2053                 1.0868
 Frc consts  --     12.6283                12.4524                 6.5082
 IR Inten    --      0.5626                 0.7307                 1.7721

                    124                    125                    126
                      A                      A                      A
 Frequencies --   3189.2515              3190.1678              3193.5875
 Red. masses --      1.0867                 1.0866                 1.0874
 Frc consts  --      6.5123                 6.5152                 6.5344
 IR Inten    --      2.3568                 0.2930                 1.0076

                    127                    128                    129
                      A                      A                      A
 Frequencies --   3194.5199              3194.7376              3196.4226
 Red. masses --      1.0892                 1.0890                 1.0900
 Frc consts  --      6.5490                 6.5487                 6.5614
 IR Inten    --      0.4549                 7.3404                 5.0751

                    130                    131                    132
                      A                      A                      A
 Frequencies --   3198.5345              3206.7423              3208.4063
 Red. masses --      1.0909                 1.0966                 1.0967
 Frc consts  --      6.5757                 6.6440                 6.6515
 IR Inten    --     21.3740                15.9221                38.6706

                    133                    134                    135
                      A                      A                      A
 Frequencies --   3211.8345              3216.4395              3226.3701
 Red. masses --      1.0944                 1.0971                 1.0950
 Frc consts  --      6.6517                 6.6873                 6.7159
 IR Inten    --     29.5812                30.7664                 1.7850

                    136                    137                    138
                      A                      A                      A
 Frequencies --   3232.6544              3245.7583              3245.9364
 Red. masses --      1.0938                 1.0907                 1.0916
 Frc consts  --      6.7346                 6.7698                 6.7762
 IR Inten    --      1.8930                20.4731                 2.9592

 - Thermochemistry -
 -------------------
 Temperature   298.150 Kelvin.  Pressure   1.00000 Atm.
 Atom     1 has atomic number  6 and mass  12.00000

 Molecular mass:   400.12520 amu.
 Principal axes and moments of inertia in atomic units:
                           1         2         3
     Eigenvalues --  6139.19051********************
           X            1.00000   0.00013   0.00046
           Y           -0.00013   1.00000   0.00101
           Z           -0.00046  -0.00101   1.00000
 This molecule is an asymmetric top.
 Rotational symmetry number  1.
 Warning -- assumption of classical behavior for rotation
           may cause significant error
 Rotational temperatures (Kelvin)      0.01411     0.00519     0.00386
 Rotational constants (GHZ):           0.29397     0.10822     0.08043
 Zero-point vibrational energy     992188.9 (Joules/Mol)
                                  237.13883 (Kcal/Mol)
 Warning -- explicit consideration of  34 degrees of freedom as
           vibrations may cause significant error
 Vibrational temperatures:     55.90    78.99   122.81   161.31   172.60
          (Kelvin)            225.14   277.52   301.60   306.26   372.24
                              379.13   401.53   416.99   432.27   495.17
                              521.45   553.00   604.78   610.55   618.94
                              673.10   688.90   695.74   712.15   727.04
                              741.13   763.23   780.32   787.76   789.95
                              797.94   813.50   840.01   881.07   901.26
                              906.98   936.89   956.49   980.71  1005.83
                             1036.01  1042.36  1051.66  1083.31  1110.28
                             1122.97  1130.31  1137.90  1154.52  1189.41
                             1206.21  1220.78  1221.84  1240.74  1250.00
                             1261.98  1270.73  1287.47  1289.79  1312.49
                             1343.56  1369.60  1390.46  1408.60  1412.22
                             1423.76  1427.79  1431.66  1436.58  1441.16
                             1482.97  1492.04  1556.58  1592.32  1604.61
                             1644.76  1652.52  1670.44  1687.92  1710.70
                             1715.02  1727.49  1747.34  1750.89  1778.36
                             1804.30  1807.97  1822.40  1830.86  1853.20
                             1871.78  1877.14  1906.98  1966.73  1980.26
                             1992.68  2011.75  2030.70  2040.20  2065.61
                             2092.39  2097.80  2104.67  2108.20  2119.81
                             2139.00  2166.01  2182.98  2205.24  2236.26
                             2239.02  2267.02  2294.57  2321.78  2374.67
                             2385.59  2398.22  2413.00  2423.60  2438.04
                             2456.66  2464.15  4587.01  4588.62  4589.93
                             4594.85  4596.20  4596.51  4598.93  4601.97
                             4613.78  4616.18  4621.11  4627.73  4642.02
                             4651.06  4669.92  4670.17

 Zero-point correction=                           0.377905 (Hartree/Particle)
 Thermal correction to Energy=                    0.397097
 Thermal correction to Enthalpy=                  0.398042
 Thermal correction to Gibbs Free Energy=         0.331866
 Sum of electronic and zero-point Energies=          -1228.756965
 Sum of electronic and thermal Energies=             -1228.737773
 Sum of electronic and thermal Enthalpies=           -1228.736829
 Sum of electronic and thermal Free Energies=        -1228.803004

                     E (Thermal)             CV                S
                      KCal/Mol        Cal/Mol-Kelvin    Cal/Mol-Kelvin
 Total                  249.182             86.043            139.279
 Electronic               0.000              0.000              0.000
 Translational            0.889              2.981             43.851
 Rotational               0.889              2.981             36.084
 Vibrational            247.405             80.082             59.344
 Vibration     1          0.594              1.981              5.317
 Vibration     2          0.596              1.976              4.633
 Vibration     3          0.601              1.959              3.764
 Vibration     4          0.607              1.939              3.232
 Vibration     5          0.609              1.933              3.101
 Vibration     6          0.620              1.895              2.592
 Vibration     7          0.635              1.850              2.200
 Vibration     8          0.642              1.826              2.047
 Vibration     9          0.644              1.821              2.019
 Vibration    10          0.668              1.748              1.670
 Vibration    11          0.670              1.740              1.638
 Vibration    12          0.679              1.712              1.539
 Vibration    13          0.686              1.693              1.475
 Vibration    14          0.693              1.673              1.414
 Vibration    15          0.723              1.587              1.193
 Vibration    16          0.736              1.550              1.112
 Vibration    17          0.753              1.504              1.022
 Vibration    18          0.783              1.426              0.891
 Vibration    19          0.786              1.417              0.877
 Vibration    20          0.791              1.405              0.858
 Vibration    21          0.825              1.321              0.744
 Vibration    22          0.835              1.297              0.713
 Vibration    23          0.840              1.287              0.701
 Vibration    24          0.851              1.261              0.671
 Vibration    25          0.861              1.238              0.645
 Vibration    26          0.870              1.217              0.621
 Vibration    27          0.885              1.183              0.586
 Vibration    28          0.897              1.156              0.560
 Vibration    29          0.903              1.145              0.549
 Vibration    30          0.904              1.142              0.546
 Vibration    31          0.910              1.130              0.535
 Vibration    32          0.921              1.106              0.513
 Vibration    33          0.941              1.066              0.478
 Vibration    34          0.972              1.006              0.429

 Normal termination of Gaussian 09 at Sun Jul 28 04:42:09 2019.
