 Gaussian 09, Revision D.01,
 Gaussian 09:  AM64L-G09RevD.01 24-Apr-2013

 ----------------------------------------------------------------------
 #P wB97XD/def2tzvp opt=(tight) freq integral(Grid=ultrafine) # SCF(Max
 Cycle=380) 5d 7f GFPrint
 ----------------------------------------------------------------------

 ---------------------------------------
 The PBEPBE optimization and frequencies
 ---------------------------------------
 Symbolic Z-matrix:
 Charge =  0 Multiplicity = 1

 SCF Done:  E(RwB97XD) =  -116.620755253     A.U. after   13 cycles
 SCF Done:  E(RwB97XD) =  -116.620767495     A.U. after    8 cycles
 SCF Done:  E(RwB97XD) =  -116.620767629     A.U. after    7 cycles
 Optimization completed.
    -- Stationary point found.

 1\1\GINC-CN506-07-R\FOpt\RwB97XD\def2TZVP\C3H4\MINENKY\09-Jul-2021\0\\
 #P wB97XD/def2tzvp opt=(tight) freq integral(Grid=ultrafine) # SCF(Max
 Cycle=380) 5d 7f GFPrint\\The PBEPBE optimization and frequencies\\0,1
 \C,0.,0.,0.8606739285\C,0.,0.642064815,-0.4986102054\C,0.,-0.642064815
 ,-0.4986102054\H,-0.9122475297,0.,1.4551524105\H,0.9122475297,0.,1.455
 1524105\H,0.,1.5701047229,-1.0409066694\H,0.,-1.5701047229,-1.04090666
 94\\Version=AM64L-G09RevD.01\State=1-A1\HF=-116.6207676\RMSD=3.360e-09
 \RMSF=4.058e-06\Dipole=0.,0.,-0.1965667\Quadrupole=-0.8943729,1.102679

 Normal termination of Gaussian 09 at Fri Jul  9 19:20:18 2021.

 ---------------------------------------------------------------------
 #P Geom=AllCheck Guess=TCheck SCRF=Check GenChk RwB97XD/def2TZVP Freq
 ---------------------------------------------------------------------

 Structure from the checkpoint file:  "m1_00_2781-85-30_C3H4_wB97XD.chk"
 ---------------------------------------
 The PBEPBE optimization and frequencies
 ---------------------------------------
 Charge =  0 Multiplicity = 1

                         Standard orientation:
 ---------------------------------------------------------------------
 Center     Atomic      Atomic             Coordinates (Angstroms)
 Number     Number       Type             X           Y           Z
 ---------------------------------------------------------------------
      1          6           0        0.000000    0.000000    0.860255
      2          6           0        0.000000    0.642065   -0.499029
      3          6           0        0.000000   -0.642065   -0.499029
      4          1           0       -0.912248    0.000000    1.454734
      5          1           0        0.912248    0.000000    1.454734
      6          1           0        0.000000    1.570105   -1.041325
      7          1           0        0.000000   -1.570105   -1.041325
 ---------------------------------------------------------------------

 SCF Done:  E(RwB97XD) =  -116.620767629     A.U. after    1 cycles

 The electronic state is 1-A1.
 Alpha  occ. eigenvalues --  -10.29841 -10.29704 -10.29374  -0.97239  -0.69606
 Alpha  occ. eigenvalues --   -0.65734  -0.59358  -0.52471  -0.43458  -0.37821
 Alpha  occ. eigenvalues --   -0.33536
 Alpha virt. eigenvalues --    0.07441   0.14703   0.15288   0.16733   0.19303
 Alpha virt. eigenvalues --    0.21798   0.21835   0.26153   0.27492   0.29724
 Alpha virt. eigenvalues --    0.31759   0.38399   0.38736   0.39071   0.41490

 Mulliken charges:
               1
     1  C   -0.255983
     2  C   -0.128950
     3  C   -0.128950
     4  H    0.094589
     5  H    0.094589
     6  H    0.162353
     7  H    0.162353
 Sum of Mulliken charges =   0.00000

 Dipole moment (field-independent basis, Debye):
    X=              0.0000    Y=              0.0000    Z=             -0.4996  Tot=              0.4996
 Quadrupole moment (field-independent basis, Debye-Ang):
   XX=            -19.3767   YY=            -16.6906   ZZ=            -18.4539
   XY=              0.0000   XZ=              0.0000   YZ=              0.0000

  Exact polarizability:  24.900   0.000  35.201   0.000   0.000  36.623
 Approx polarizability:  26.974   0.000  41.547   0.000   0.000  36.757

                      1                      2                      3
                     B1                     B2                     A2
 Frequencies --    609.8396               809.6342               887.3926
 Red. masses --      1.1236                 2.3078                 1.4052
 Frc consts  --      0.2462                 0.8913                 0.6520
 IR Inten    --     91.4919                20.1268                 0.0000

                      4                      5                      6
                     A1                     A2                     B2
 Frequencies --    923.3586              1023.9458              1052.0694
 Red. masses --      1.1424                 1.1018                 1.6618
 Frc consts  --      0.5739                 0.6806                 1.0837
 IR Inten    --      5.2694                 0.0000                33.1049

                      7                      8                      9
                     B2                     B1                     A1
 Frequencies --   1083.5900              1116.7875              1159.3600
 Red. masses --      1.3816                 1.2869                 4.3266
 Frc consts  --      0.9558                 0.9457                 3.4263
 IR Inten    --     26.6786                 2.1342                 0.1579

                     10                     11                     12
                     A1                     A1                     A1
 Frequencies --   1529.4028              1754.9182              3068.0900
 Red. masses --      1.1128                 4.7061                 1.0476
 Frc consts  --      1.5336                 8.5393                 5.8103
 IR Inten    --      1.4755                16.9852                67.2344

                     13                     14                     15
                     B1                     B2                     A1
 Frequencies --   3135.8673              3279.1231              3324.9135
 Red. masses --      1.1173                 1.0850                 1.1469
 Frc consts  --      6.4734                 6.8738                 7.4702
 IR Inten    --     38.9753                 1.0035                 0.4516

 - Thermochemistry -
 -------------------
 Temperature   298.150 Kelvin.  Pressure   1.00000 Atm.
 Atom     1 has atomic number  6 and mass  12.00000

 Molecular mass:    40.03130 amu.
 Principal axes and moments of inertia in atomic units:
                           1         2         3
     Eigenvalues --    59.06680  82.02413 129.11061
           X            0.00000   0.00000   1.00000
           Y            0.00000   1.00000   0.00000
           Z            1.00000   0.00000   0.00000
 This molecule is an asymmetric top.
 Rotational symmetry number  2.
 Rotational temperatures (Kelvin)      1.46637     1.05596     0.67085
 Rotational constants (GHZ):          30.55424    22.00256    13.97826
 Zero-point vibrational energy     148087.5 (Joules/Mol)
                                   35.39376 (Kcal/Mol)
 Warning -- explicit consideration of   1 degrees of freedom as
           vibrations may cause significant error
 Vibrational temperatures:    877.42  1164.88  1276.76  1328.51  1473.23
          (Kelvin)           1513.69  1559.04  1606.81  1668.06  2200.47
                             2524.93  4414.29  4511.81  4717.92  4783.80

 Zero-point correction=                           0.056404 (Hartree/Particle)
 Thermal correction to Energy=                    0.059712
 Thermal correction to Enthalpy=                  0.060656
 Thermal correction to Gibbs Free Energy=         0.033131
 Sum of electronic and zero-point Energies=           -116.564364
 Sum of electronic and thermal Energies=              -116.561056
 Sum of electronic and thermal Enthalpies=            -116.560112
 Sum of electronic and thermal Free Energies=         -116.587637

                     E (Thermal)             CV                S
                      KCal/Mol        Cal/Mol-Kelvin    Cal/Mol-Kelvin
 Total                   37.470             10.160             57.931
 Electronic               0.000              0.000              0.000
 Translational            0.889              2.981             36.989
 Rotational               0.889              2.981             19.686
 Vibrational             35.692              4.199              1.256
 Vibration     1          0.969              1.011              0.433

 Optimization completed.
    -- Stationary point found.

 1\1\GINC-CN506-07-R\Freq\RwB97XD\def2TZVP\C3H4\MINENKY\09-Jul-2021\0\\
 #P Geom=AllCheck Guess=TCheck SCRF=Check GenChk RwB97XD/def2TZVP Freq\
 \The PBEPBE optimization and frequencies\\0,1\C,0.,0.,0.8606739285\C,0
 .,0.642064815,-0.4986102054\C,0.,-0.642064815,-0.4986102054\H,-0.91224
 75297,0.,1.4551524105\H,0.9122475297,0.,1.4551524105\H,0.,1.5701047229
 ,-1.0409066694\H,0.,-1.5701047229,-1.0409066694\\Version=AM64L-G09RevD
 .01\State=1-A1\HF=-116.6207676\RMSD=4.838e-10\RMSF=4.058e-06\ZeroPoint
 =0.0564035\Thermal=0.0597118\Dipole=0.,0.,-0.1965667\DipoleDeriv=0.294

 Normal termination of Gaussian 09 at Fri Jul  9 19:20:47 2021.
