 Gaussian 09, Revision D.01,
 Gaussian 09:  AM64L-G09RevD.01 24-Apr-2013

 ----------------------------------------------------------------------
 #P wB97XD/def2tzvp opt=(tight) freq integral(Grid=ultrafine) # SCF(Max
 Cycle=380) 5d 7f GFPrint
 ----------------------------------------------------------------------

 ---------------------------------------
 The PBEPBE optimization and frequencies
 ---------------------------------------
 Symbolic Z-matrix:
 Charge =  0 Multiplicity = 1

 SCF Done:  E(RwB97XD) =  -116.654888096     A.U. after   13 cycles
 SCF Done:  E(RwB97XD) =  -116.654909117     A.U. after    9 cycles
 SCF Done:  E(RwB97XD) =  -116.654909853     A.U. after    7 cycles
 SCF Done:  E(RwB97XD) =  -116.654909904     A.U. after    7 cycles
 Optimization completed.
    -- Stationary point found.

 1\1\GINC-CN514-06-R\FOpt\RwB97XD\def2TZVP\C3H4\MINENKY\09-Jul-2021\0\\
 #P wB97XD/def2tzvp opt=(tight) freq integral(Grid=ultrafine) # SCF(Max
 Cycle=380) 5d 7f GFPrint\\The PBEPBE optimization and frequencies\\0,1
 \C,0.,0.,0.2174464699\C,0.,0.,1.4144836607\H,0.,0.,2.4777635728\C,0.,0
 .,-1.2379690217\H,-0.0000000207,1.0205403394,-1.6233410119\H,0.8838138
 699,-0.5102701518,-1.6233410119\H,-0.8838138492,-0.5102701876,-1.62334
 10119\\Version=AM64L-G09RevD.01\State=1-A1\HF=-116.6549099\RMSD=3.398e
 -09\RMSF=4.451e-07\Dipole=0.,0.,-0.3221068\Quadrupole=-1.4250364,-1.42

 Normal termination of Gaussian 09 at Fri Jul  9 19:23:03 2021.

 ---------------------------------------------------------------------
 #P Geom=AllCheck Guess=TCheck SCRF=Check GenChk RwB97XD/def2TZVP Freq
 ---------------------------------------------------------------------

 Structure from the checkpoint file:  "m1_00_74-99-70_C3H4_wB97XD.chk"
 ---------------------------------------
 The PBEPBE optimization and frequencies
 ---------------------------------------
 Charge =  0 Multiplicity = 1

                         Standard orientation:
 ---------------------------------------------------------------------
 Center     Atomic      Atomic             Coordinates (Angstroms)
 Number     Number       Type             X           Y           Z
 ---------------------------------------------------------------------
      1          6           0        0.000000    0.000000    0.218742
      2          6           0        0.000000    0.000000    1.415779
      3          1           0        0.000000    0.000000    2.479059
      4          6           0        0.000000    0.000000   -1.236674
      5          1           0        0.000000    1.020540   -1.622046
      6          1           0        0.883814   -0.510270   -1.622046
      7          1           0       -0.883814   -0.510270   -1.622046
 ---------------------------------------------------------------------

 SCF Done:  E(RwB97XD) =  -116.654909904     A.U. after    1 cycles

 The electronic state is 1-A1.
 Alpha  occ. eigenvalues --  -10.30547 -10.28755 -10.27077  -0.88283  -0.80122
 Alpha  occ. eigenvalues --   -0.61806  -0.54188  -0.52207  -0.52207  -0.35388
 Alpha  occ. eigenvalues --   -0.35388
 Alpha virt. eigenvalues --    0.11618   0.11618   0.12023   0.15664   0.20194
 Alpha virt. eigenvalues --    0.20194   0.21920   0.23757   0.28403   0.28403
 Alpha virt. eigenvalues --    0.31467   0.34835   0.34835   0.44607   0.44607

 Mulliken charges:
               1
     1  C   -0.090807
     2  C   -0.163076
     3  H    0.192787
     4  C   -0.384180
     5  H    0.148425
     6  H    0.148425
     7  H    0.148425
 Sum of Mulliken charges =   0.00000

 Dipole moment (field-independent basis, Debye):
    X=              0.0000    Y=              0.0000    Z=             -0.8187  Tot=              0.8187
 Quadrupole moment (field-independent basis, Debye-Ang):
   XX=            -19.5835   YY=            -19.5835   ZZ=            -13.8333
   XY=              0.0000   XZ=              0.0000   YZ=              0.0000

  Exact polarizability:  24.933   0.000  24.935   0.000  -0.002  48.970
 Approx polarizability:  26.460   0.000  26.460   0.000   0.000  53.461

                      1                      2                      3
                      E                      E                      E
 Frequencies --    356.3861               356.5048               693.1631
 Red. masses --      2.8825                 2.8825                 1.2716
 Frc consts  --      0.2157                 0.2158                 0.3600
 IR Inten    --     11.7396                11.7406                50.5108

                      4                      5                      6
                      E                     A1                      E
 Frequencies --    693.1639               950.7648              1060.9053
 Red. masses --      1.2716                 3.9892                 1.4123
 Frc consts  --      0.3600                 2.1246                 0.9366
 IR Inten    --     50.5076                 0.3342                 0.3511

                      7                      8                      9
                      E                     A1                      E
 Frequencies --   1060.9224              1418.8448              1483.2686
 Red. masses --      1.4123                 1.2412                 1.0383
 Frc consts  --      0.9366                 1.4722                 1.3459
 IR Inten    --      0.3517                 0.0308                 9.7550

                     10                     11                     12
                      E                     A1                     A1
 Frequencies --   1483.2686              2257.3183              3060.5805
 Red. masses --      1.0383                 5.8517                 1.0348
 Frc consts  --      1.3459                17.5677                 5.7110
 IR Inten    --      9.7726                 8.9975                14.0192

                     13                     14                     15
                      E                      E                     A1
 Frequencies --   3134.1240              3134.1289              3481.0066
 Red. masses --      1.1018                 1.1018                 1.1652
 Frc consts  --      6.3767                 6.3767                 8.3189
 IR Inten    --      5.5062                 5.4858                63.4144

 - Thermochemistry -
 -------------------
 Temperature   298.150 Kelvin.  Pressure   1.00000 Atm.
 Atom     1 has atomic number  6 and mass  12.00000

 Molecular mass:    40.03130 amu.
 Principal axes and moments of inertia in atomic units:
                           1         2         3
     Eigenvalues --    11.24513 209.13126 209.13126
           X            0.00000   0.97959   0.20100
           Y            0.00000  -0.20100   0.97959
           Z            1.00000   0.00000   0.00000
 This molecule is a prolate symmetric top.
 Rotational symmetry number  3.
 Rotational temperatures (Kelvin)      7.70234     0.41416     0.41416
 Rotational constants (GHZ):         160.49091     8.62971     8.62971
 Zero-point vibrational energy     147286.3 (Joules/Mol)
                                   35.20228 (Kcal/Mol)
 Warning -- explicit consideration of   2 degrees of freedom as
           vibrations may cause significant error
 Vibrational temperatures:    512.76   512.93   997.31   997.31  1367.94
          (Kelvin)           1526.40  1526.43  2041.40  2134.09  2134.09
                             3247.77  4403.49  4509.30  4509.31  5008.39

 Zero-point correction=                           0.056098 (Hartree/Particle)
 Thermal correction to Energy=                    0.059991
 Thermal correction to Enthalpy=                  0.060935
 Thermal correction to Gibbs Free Energy=         0.032979
 Sum of electronic and zero-point Energies=           -116.598812
 Sum of electronic and thermal Energies=              -116.594919
 Sum of electronic and thermal Enthalpies=            -116.593975
 Sum of electronic and thermal Free Energies=         -116.621931

                     E (Thermal)             CV                S
                      KCal/Mol        Cal/Mol-Kelvin    Cal/Mol-Kelvin
 Total                   37.645             12.098             58.837
 Electronic               0.000              0.000              0.000
 Translational            0.889              2.981             36.989
 Rotational               0.889              2.981             18.642
 Vibrational             35.867              6.136              3.206
 Vibration     1          0.732              1.562              1.138
 Vibration     2          0.732              1.562              1.137

 Optimization completed.
    -- Stationary point found.

 1\1\GINC-CN514-06-R\Freq\RwB97XD\def2TZVP\C3H4\MINENKY\09-Jul-2021\0\\
 #P Geom=AllCheck Guess=TCheck SCRF=Check GenChk RwB97XD/def2TZVP Freq\
 \The PBEPBE optimization and frequencies\\0,1\C,0.,0.,0.2174464699\C,0
 .,0.,1.4144836607\H,0.,0.,2.4777635728\C,0.,0.,-1.2379690217\H,-0.0000
 000207,1.0205403394,-1.6233410119\H,0.8838138699,-0.5102701518,-1.6233
 410119\H,-0.8838138492,-0.5102701876,-1.6233410119\\Version=AM64L-G09R
 evD.01\State=1-A1\HF=-116.6549099\RMSD=7.519e-10\RMSF=4.460e-07\ZeroPo
 int=0.0560984\Thermal=0.0599905\Dipole=0.,0.,-0.3221067\DipoleDeriv=-0

 Normal termination of Gaussian 09 at Fri Jul  9 19:24:13 2021.
