 Gaussian 09, Revision D.01,
 Gaussian 09:  AM64L-G09RevD.01 24-Apr-2013

 ----------------------------------------------------------------------
 #P wB97XD/def2tzvp opt=(tight) freq integral(Grid=ultrafine) # SCF(Max
 Cycle=380) 5d 7f GFPrint
 ----------------------------------------------------------------------

 ---------------------------------------
 The PBEPBE optimization and frequencies
 ---------------------------------------
 Symbolic Z-matrix:
 Charge =  0 Multiplicity = 1

 SCF Done:  E(RwB97XD) =  -1230.26015973     A.U. after   17 cycles
 SCF Done:  E(RwB97XD) =  -1230.26237545     A.U. after   15 cycles
 SCF Done:  E(RwB97XD) =  -1230.26448218     A.U. after   14 cycles
 SCF Done:  E(RwB97XD) =  -1230.26481486     A.U. after   14 cycles
 SCF Done:  E(RwB97XD) =  -1230.26593971     A.U. after   14 cycles
 SCF Done:  E(RwB97XD) =  -1230.26601883     A.U. after   13 cycles
 SCF Done:  E(RwB97XD) =  -1230.26602530     A.U. after   11 cycles
 SCF Done:  E(RwB97XD) =  -1230.26602559     A.U. after    8 cycles
 SCF Done:  E(RwB97XD) =  -1230.26602562     A.U. after    6 cycles
 SCF Done:  E(RwB97XD) =  -1230.26602562     A.U. after    5 cycles
 Optimization completed.
    -- Stationary point found.
 Normal termination of Gaussian 09 at Thu Aug  1 01:51:25 2019.

 ---------------------------------------------------------------------
 #P Geom=AllCheck Guess=TCheck SCRF=Check GenChk RwB97XD/def2TZVP Freq
 ---------------------------------------------------------------------

 Structure from the checkpoint file:  "m1_00_117440-50-3-C32H18_wB97XD.chk"
 ---------------------------------------
 The PBEPBE optimization and frequencies
 ---------------------------------------
 Charge =  0 Multiplicity = 1

                         Standard orientation:
 ---------------------------------------------------------------------
 Center     Atomic      Atomic             Coordinates (Angstroms)
 Number     Number       Type             X           Y           Z
 ---------------------------------------------------------------------
      1          6           0        1.126262   -1.522812   -0.627861
      2          6           0       -0.111369   -3.969470   -1.288441
      3          6           0        1.179715   -3.731779   -1.637875
      4          6           0        1.807418   -2.515709   -1.287394
      5          6           0       -0.282152   -1.682922   -0.423165
      6          6           0       -1.065951   -0.599720   -0.000270
      7          6           0       -2.202066   -3.156885   -0.275297
      8          6           0       -0.881172   -2.955479   -0.654347
      9          6           0        1.749623   -0.296621   -0.122262
     10          6           0        2.896484    2.232293    0.331313
     11          6           0        0.924230    0.849786   -0.051239
     12          6           0        1.521327    2.141770    0.097670
     13          6           0        0.717374    3.282200   -0.017967
     14          6           0       -0.485976    0.737903   -0.155854
     15          6           0        3.680013    1.102552    0.457813
     16          6           0        3.103464   -0.197192    0.247465
     17          6           0        3.944311   -1.327499    0.499558
     18          6           0        5.248078   -1.183016    0.844431
     19          6           0        5.835231    0.107106    0.953610
     20          6           0        5.069774    1.208588    0.779319
     21          6           0       -1.235751    1.889568   -0.455273
     22          6           0       -0.617044    3.183010   -0.350180
     23          6           0       -1.401989    4.355029   -0.596736
     24          6           0       -2.687170    4.262720   -1.005501
     25          6           0       -3.272920    2.981855   -1.213448
     26          6           0       -2.581251    1.849194   -0.942391
     27          6           0       -2.914146   -2.166096    0.390767
     28          6           0       -2.339286   -0.866997    0.558029
     29          6           0       -3.056126    0.072296    1.355795
     30          6           0       -4.272938   -0.226039    1.879873
     31          6           0       -4.879405   -1.484153    1.632771
     32          6           0       -4.215016   -2.423927    0.916186
     33          1           0       -0.578582   -4.924021   -1.498167
     34          1           0        1.753287   -4.489041   -2.156984
     35          1           0        2.847052   -2.376472   -1.546432
     36          1           0       -2.671441   -4.115659   -0.465022
     37          1           0        3.351517    3.211840    0.425591
     38          1           0        1.166177    4.259968    0.115761
     39          1           0        3.513275   -2.316956    0.473890
     40          1           0        5.844887   -2.059345    1.063641
     41          1           0        6.883352    0.200591    1.207502
     42          1           0        5.490902    2.199872    0.898289
     43          1           0       -0.928032    5.321317   -0.471239
     44          1           0       -3.265863    5.155710   -1.204340
     45          1           0       -4.278647    2.914241   -1.608214
     46          1           0       -2.605211    1.030616    1.568061
     47          1           0       -3.041212    0.890658   -1.129706
     48          1           0       -4.781321    0.498771    2.502820
     49          1           0       -5.859537   -1.697115    2.040054
     50          1           0       -4.650078   -3.402303    0.749916
 ---------------------------------------------------------------------

 SCF Done:  E(RwB97XD) =  -1230.26602562     A.U. after    1 cycles

 The electronic state is 1-A.
 Alpha  occ. eigenvalues --  -10.30744 -10.30647 -10.30645 -10.30568 -10.30450
 Alpha  occ. eigenvalues --  -10.30447 -10.30398 -10.30321 -10.30175 -10.30103
 Alpha  occ. eigenvalues --  -10.30101 -10.30084 -10.30064 -10.30060 -10.29215
 Alpha  occ. eigenvalues --  -10.29178 -10.29161 -10.29156 -10.29154 -10.29083
 Alpha  occ. eigenvalues --  -10.29081 -10.29023 -10.29017 -10.28970 -10.28925
 Alpha  occ. eigenvalues --  -10.28885 -10.28883 -10.28870 -10.28797 -10.28797
 Alpha  occ. eigenvalues --  -10.28695 -10.28673  -1.01263  -0.98873  -0.97699
 Alpha  occ. eigenvalues --   -0.96223  -0.94314  -0.92245  -0.91561  -0.89639
 Alpha  occ. eigenvalues --   -0.88186  -0.86934  -0.85667  -0.84712  -0.84060
 Alpha  occ. eigenvalues --   -0.83356  -0.82084  -0.78611  -0.76351  -0.74146
 Alpha  occ. eigenvalues --   -0.73160  -0.72874  -0.70752  -0.70200  -0.69927
 Alpha  occ. eigenvalues --   -0.67638  -0.65994  -0.65554  -0.63452  -0.62737
 Alpha  occ. eigenvalues --   -0.61247  -0.60322  -0.59326  -0.58891  -0.57493
 Alpha  occ. eigenvalues --   -0.55780  -0.55507  -0.54919  -0.54430  -0.53887
 Alpha  occ. eigenvalues --   -0.53426  -0.52785  -0.52573  -0.51682  -0.51343
 Alpha  occ. eigenvalues --   -0.50380  -0.50331  -0.49803  -0.49577  -0.49268
 Alpha  occ. eigenvalues --   -0.48531  -0.47865  -0.47698  -0.46707  -0.46142
 Alpha  occ. eigenvalues --   -0.45590  -0.44893  -0.44038  -0.43806  -0.42759
 Alpha  occ. eigenvalues --   -0.42676  -0.41723  -0.41370  -0.40368  -0.40267
 Alpha  occ. eigenvalues --   -0.39449  -0.37683  -0.36648  -0.36298  -0.33736
 Alpha  occ. eigenvalues --   -0.31686  -0.31261  -0.30578  -0.28545  -0.23106
 Alpha virt. eigenvalues --   -0.04791   0.00169   0.03278   0.03600   0.03998
 Alpha virt. eigenvalues --    0.05678   0.08004   0.08709   0.10927   0.12665
 Alpha virt. eigenvalues --    0.12767   0.12795   0.12889   0.13110   0.13396

 Mulliken charges:
               1
     1  C    0.080170
     2  C   -0.223129
     3  C   -0.074236
     4  C   -0.321711
     5  C   -0.060421
     6  C    0.250970
     7  C   -0.330685
     8  C    0.222208
     9  C    0.135326
    10  C   -0.335649
    11  C   -0.094237
    12  C    0.260441
    13  C   -0.346962
    14  C    0.255530
    15  C    0.175400
    16  C    0.085293
    17  C   -0.360826
    18  C   -0.091216
    19  C   -0.108723
    20  C   -0.203037
    21  C   -0.116371
    22  C    0.206301
    23  C   -0.212019
    24  C   -0.103883
    25  C   -0.090626
    26  C   -0.256857
    27  C    0.200973
    28  C   -0.146153
    29  C   -0.242574
    30  C   -0.094563
    31  C   -0.102116
    32  C   -0.205095
    33  H    0.111041
    34  H    0.116559
    35  H    0.178905
    36  H    0.103513
    37  H    0.104588
    38  H    0.104696
    39  H    0.184540
    40  H    0.118798
    41  H    0.117485
    42  H    0.109760
    43  H    0.108948
    44  H    0.116960
    45  H    0.119110
    46  H    0.153927
    47  H    0.155342
    48  H    0.118778
    49  H    0.116838
    50  H    0.108688
 Sum of Mulliken charges =   0.00000

 Dipole moment (field-independent basis, Debye):
    X=             -0.0612    Y=             -0.0471    Z=              0.0355  Tot=              0.0849
 Quadrupole moment (field-independent basis, Debye-Ang):
   XX=           -160.6818   YY=           -160.0814   ZZ=           -187.9697
   XY=              0.9019   XZ=              0.2259   YZ=              4.0781

  Exact polarizability: 590.744  -1.053 500.235   2.626  20.132 216.166
 Approx polarizability: 630.951 -12.650 587.859   0.075  39.591 286.551

                      1                      2                      3
                      A                      A                      A
 Frequencies --     42.6379                59.5545                72.8739
 Red. masses --      5.5990                 5.1291                 4.5561
 Frc consts  --      0.0060                 0.0107                 0.0143
 IR Inten    --      0.1300                 0.4634                 0.6319

                      4                      5                      6
                      A                      A                      A
 Frequencies --     91.0608               101.7695               117.4158
 Red. masses --      4.8121                 4.6317                 4.4370
 Frc consts  --      0.0235                 0.0283                 0.0360
 IR Inten    --      0.2298                 0.2944                 1.1059

                      7                      8                      9
                      A                      A                      A
 Frequencies --    143.4471               150.7126               179.4685
 Red. masses --      4.6936                 5.2510                 4.6947
 Frc consts  --      0.0569                 0.0703                 0.0891
 IR Inten    --      0.2498                 0.1926                 2.7813

                     10                     11                     12
                      A                      A                      A
 Frequencies --    212.6688               235.8520               254.4939
 Red. masses --      4.5498                 4.7867                 4.9997
 Frc consts  --      0.1212                 0.1569                 0.1908
 IR Inten    --      1.5722                 0.6648                 2.6271

                     13                     14                     15
                      A                      A                      A
 Frequencies --    282.5220               297.6892               307.6707
 Red. masses --      5.3315                 5.1796                 6.1573
 Frc consts  --      0.2507                 0.2704                 0.3434
 IR Inten    --      0.7549                 2.0171                 0.2237

                     16                     17                     18
                      A                      A                      A
 Frequencies --    314.4290               339.7091               341.5840
 Red. masses --      4.7306                 5.0516                 5.5727
 Frc consts  --      0.2756                 0.3435                 0.3831
 IR Inten    --      0.2618                 0.2938                 0.7066

                     19                     20                     21
                      A                      A                      A
 Frequencies --    355.3157               366.9228               404.9680
 Red. masses --      4.4078                 5.0047                 5.1889
 Frc consts  --      0.3279                 0.3970                 0.5014
 IR Inten    --      0.2213                 0.3220                 0.3550

                     22                     23                     24
                      A                      A                      A
 Frequencies --    433.5531               457.9844               469.1833
 Red. masses --      5.6322                 5.0123                 3.6257
 Frc consts  --      0.6238                 0.6194                 0.4703
 IR Inten    --      0.3566                 0.1990                 0.6575

                     25                     26                     27
                      A                      A                      A
 Frequencies --    491.6410               504.5735               521.5394
 Red. masses --      3.2390                 3.9731                 3.7798
 Frc consts  --      0.4613                 0.5960                 0.6057
 IR Inten    --     13.3544                 1.7427                 1.1251

                     28                     29                     30
                      A                      A                      A
 Frequencies --    527.7727               528.7353               538.9660
 Red. masses --      4.2933                 3.6419                 4.8292
 Frc consts  --      0.7046                 0.5999                 0.8265
 IR Inten    --      0.6626                 1.7643                 6.6303

                     31                     32                     33
                      A                      A                      A
 Frequencies --    557.7318               559.4290               570.8454
 Red. masses --      4.3885                 3.3590                 5.2374
 Frc consts  --      0.8043                 0.6194                 1.0056
 IR Inten    --     10.2647                 4.1598                 2.6385

                     34                     35                     36
                      A                      A                      A
 Frequencies --    604.8265               609.4387               633.6882
 Red. masses --      4.4290                 6.5448                 6.6747
 Frc consts  --      0.9546                 1.4322                 1.5792
 IR Inten    --      2.1947                 8.9901                12.8568

                     37                     38                     39
                      A                      A                      A
 Frequencies --    645.4111               651.4362               659.5250
 Red. masses --      7.5704                 6.0550                 4.0075
 Frc consts  --      1.8580                 1.5139                 1.0270
 IR Inten    --      5.2967                 1.2837                 4.9255

                     40                     41                     42
                      A                      A                      A
 Frequencies --    663.1179               673.8076               688.8660
 Red. masses --      5.8290                 5.3679                 4.3149
 Frc consts  --      1.5102                 1.4359                 1.2064
 IR Inten    --      0.2969                 4.8363                 5.4539

                     43                     44                     45
                      A                      A                      A
 Frequencies --    723.1282               755.7488               766.0150
 Red. masses --      5.4558                 3.9237                 1.4626
 Frc consts  --      1.6809                 1.3204                 0.5056
 IR Inten    --      2.9846                 5.5767                 8.9799

                     46                     47                     48
                      A                      A                      A
 Frequencies --    769.9551               773.4031               781.5977
 Red. masses --      1.3364                 1.3892                 2.0895
 Frc consts  --      0.4668                 0.4896                 0.7521
 IR Inten    --     79.1703                35.6648                 7.8708

                     49                     50                     51
                      A                      A                      A
 Frequencies --    789.4344               797.2764               806.3938
 Red. masses --      4.6853                 2.2535                 5.4468
 Frc consts  --      1.7203                 0.8439                 2.0868
 IR Inten    --      5.9154                 4.0392                 1.0150

                     52                     53                     54
                      A                      A                      A
 Frequencies --    813.9800               833.4646               844.9159
 Red. masses --      2.2518                 3.4234                 5.2294
 Frc consts  --      0.8790                 1.4011                 2.1995
 IR Inten    --      6.1649                 7.6869                 0.3831

                     55                     56                     57
                      A                      A                      A
 Frequencies --    864.1675               867.2500               875.5556
 Red. masses --      1.4210                 2.2086                 2.2386
 Frc consts  --      0.6252                 0.9787                 1.0111
 IR Inten    --      0.1885                 2.1767                 7.0729

                     58                     59                     60
                      A                      A                      A
 Frequencies --    884.5831               888.1841               901.3950
 Red. masses --      2.4787                 2.3074                 1.8246
 Frc consts  --      1.1428                 1.0725                 0.8735
 IR Inten    --      9.9765                 5.9580                 0.3231

                     61                     62                     63
                      A                      A                      A
 Frequencies --    921.2242               930.7725               934.6527
 Red. masses --      1.9090                 5.5536                 1.9194
 Frc consts  --      0.9545                 2.8347                 0.9879
 IR Inten    --     22.5883                 5.3126                28.9975

                     64                     65                     66
                      A                      A                      A
 Frequencies --    934.9824               936.7797               956.9079
 Red. masses --      5.0597                 4.9603                 1.4453
 Frc consts  --      2.6060                 2.5647                 0.7797
 IR Inten    --      5.4494                 2.0512                 0.3696

                     67                     68                     69
                      A                      A                      A
 Frequencies --    994.8859               996.0352               996.2348
 Red. masses --      1.5492                 1.3639                 1.3832
 Frc consts  --      0.9034                 0.7972                 0.8089
 IR Inten    --      0.2674                 0.2120                 1.6581

                     70                     71                     72
                      A                      A                      A
 Frequencies --    999.3105              1001.8979              1012.2439
 Red. masses --      1.5169                 2.1349                 1.2998
 Frc consts  --      0.8925                 1.2626                 0.7847
 IR Inten    --      1.0439                 1.4610                 0.0853

                     73                     74                     75
                      A                      A                      A
 Frequencies --   1019.4443              1024.3431              1041.5396
 Red. masses --      1.3423                 1.3422                 2.4027
 Frc consts  --      0.8219                 0.8298                 1.5357
 IR Inten    --      0.5782                 1.4212                10.7167

                     76                     77                     78
                      A                      A                      A
 Frequencies --   1047.7777              1050.3587              1068.4115
 Red. masses --      2.2828                 2.2732                 4.3369
 Frc consts  --      1.4766                 1.4776                 2.9168
 IR Inten    --      3.6524                 1.7828                 1.1839

                     79                     80                     81
                      A                      A                      A
 Frequencies --   1093.7765              1108.8755              1151.5101
 Red. masses --      4.0631                 2.0908                 2.0233
 Frc consts  --      2.8639                 1.5147                 1.5807
 IR Inten    --      3.0198                 2.6905                 2.1229

                     82                     83                     84
                      A                      A                      A
 Frequencies --   1164.1519              1166.6013              1174.6541
 Red. masses --      2.0148                 1.6761                 1.4327
 Frc consts  --      1.6088                 1.3439                 1.1647
 IR Inten    --      9.9544                 4.3392                 0.3647

                     85                     86                     87
                      A                      A                      A
 Frequencies --   1194.8547              1200.7057              1208.3323
 Red. masses --      1.3019                 1.1208                 1.2965
 Frc consts  --      1.0951                 0.9520                 1.1153
 IR Inten    --      3.7042                 0.4935                 1.3525

                     88                     89                     90
                      A                      A                      A
 Frequencies --   1210.0849              1217.8512              1242.1972
 Red. masses --      1.2239                 1.3323                 1.5144
 Frc consts  --      1.0559                 1.1643                 1.3768
 IR Inten    --      0.3110                 0.0895                 0.6346

                     91                     92                     93
                      A                      A                      A
 Frequencies --   1256.4226              1266.3095              1272.7795
 Red. masses --      1.7733                 1.8182                 1.8889
 Frc consts  --      1.6493                 1.7178                 1.8029
 IR Inten    --      1.2938                 0.3166                 0.3000

                     94                     95                     96
                      A                      A                      A
 Frequencies --   1290.2326              1307.5607              1324.1236
 Red. masses --      2.1260                 2.4223                 3.0144
 Frc consts  --      2.0853                 2.4400                 3.1139
 IR Inten    --      2.3226                 2.8354                 7.0770

                     97                     98                     99
                      A                      A                      A
 Frequencies --   1341.4315              1355.7084              1360.2651
 Red. masses --      2.6324                 2.6148                 2.6820
 Frc consts  --      2.7908                 2.8316                 2.9239
 IR Inten    --      6.6463                 4.9509                17.5460

                    100                    101                    102
                      A                      A                      A
 Frequencies --   1382.5176              1394.0454              1416.3503
 Red. masses --      2.9518                 2.9371                 2.9505
 Frc consts  --      3.3241                 3.3630                 3.4873
 IR Inten    --      0.1689                 3.0986                 0.0955

                    103                    104                    105
                      A                      A                      A
 Frequencies --   1418.2948              1426.0082              1431.1318
 Red. masses --      3.0293                 4.8383                 2.7799
 Frc consts  --      3.5902                 5.7968                 3.3545
 IR Inten    --      1.6294                 1.6148                 0.3222

                    106                    107                    108
                      A                      A                      A
 Frequencies --   1446.0349              1449.3242              1467.0643
 Red. masses --      3.3043                 4.5428                 4.6852
 Frc consts  --      4.0709                 5.6221                 5.9413
 IR Inten    --      3.9669                 2.8451                 1.7379

                    109                    110                    111
                      A                      A                      A
 Frequencies --   1481.9425              1490.9196              1497.3129
 Red. masses --      3.5095                 3.1267                 2.4839
 Frc consts  --      4.5411                 4.0949                 3.2811
 IR Inten    --      2.8820                 1.0639                 0.3065

                    112                    113                    114
                      A                      A                      A
 Frequencies --   1502.3105              1518.8192              1531.4291
 Red. masses --      2.8207                 2.6150                 3.0021
 Frc consts  --      3.7508                 3.5541                 4.1483
 IR Inten    --      0.9578                 5.3311                 1.0948

                    115                    116                    117
                      A                      A                      A
 Frequencies --   1561.0100              1582.7349              1608.7748
 Red. masses --      6.0041                 6.5583                 6.8489
 Frc consts  --      8.6200                 9.6796                10.4438
 IR Inten    --      0.1209                 7.6405                 2.7709

                    118                    119                    120
                      A                      A                      A
 Frequencies --   1617.0413              1628.7450              1632.5522
 Red. masses --      7.8122                 5.9109                 7.3342
 Frc consts  --     12.0356                 9.2387                11.5170
 IR Inten    --      0.0086                 0.1397                 0.4422

                    121                    122                    123
                      A                      A                      A
 Frequencies --   1643.3788              1665.8822              1691.0626
 Red. masses --      5.6637                 6.5656                 6.7235
 Frc consts  --      9.0121                10.7353                11.3283
 IR Inten    --      1.6124                 1.7881                 3.5646

                    124                    125                    126
                      A                      A                      A
 Frequencies --   1702.3166              1703.8701              1710.6162
 Red. masses --      5.8443                 6.0764                 6.1037
 Frc consts  --      9.9785                10.3938                10.5232
 IR Inten    --      3.0798                 1.2450                18.4130

                    127                    128                    129
                      A                      A                      A
 Frequencies --   3188.7171              3188.8615              3190.0097
 Red. masses --      1.0900                 1.0902                 1.0876
 Frc consts  --      6.5297                 6.5319                 6.5209
 IR Inten    --      2.8157                 0.8965                 1.3845

                    130                    131                    132
                      A                      A                      A
 Frequencies --   3191.0498              3191.2137              3192.4734
 Red. masses --      1.0873                 1.0871                 1.0894
 Frc consts  --      6.5232                 6.5225                 6.5415
 IR Inten    --      3.3133                 0.3820                 6.6569

                    133                    134                    135
                      A                      A                      A
 Frequencies --   3193.9694              3201.7506              3202.8867
 Red. masses --      1.0869                 1.0903                 1.0902
 Frc consts  --      6.5328                 6.5855                 6.5896
 IR Inten    --      0.1649                13.0884                19.1405

                    136                    137                    138
                      A                      A                      A
 Frequencies --   3203.1913              3211.8826              3217.3022
 Red. masses --      1.0904                 1.0946                 1.0958
 Frc consts  --      6.5920                 6.6530                 6.6831
 IR Inten    --      8.4442                32.3541                27.2602

                    139                    140                    141
                      A                      A                      A
 Frequencies --   3217.5017              3217.6754              3229.2937
 Red. masses --      1.0964                 1.0961                 1.0941
 Frc consts  --      6.6876                 6.6865                 6.7227
 IR Inten    --     34.8854                12.7427                 2.4181

                    142                    143                    144
                      A                      A                      A
 Frequencies --   3235.4043              3239.5958              3243.5413
 Red. masses --      1.0947                 1.0941                 1.0925
 Frc consts  --      6.7513                 6.7656                 6.7720
 IR Inten    --      4.7875                 6.2554                 6.9588

 - Thermochemistry -
 -------------------
 Temperature   298.150 Kelvin.  Pressure   1.00000 Atm.
 Atom     1 has atomic number  6 and mass  12.00000

 Molecular mass:   402.14085 amu.
 Principal axes and moments of inertia in atomic units:
                           1         2         3
     Eigenvalues --  8852.61827********************
           X            0.99998  -0.00611  -0.00007
           Y            0.00611   0.99998   0.00315
           Z            0.00005  -0.00315   1.00000
 This molecule is an asymmetric top.
 Rotational symmetry number  1.
 Warning -- assumption of classical behavior for rotation
           may cause significant error
 Rotational temperatures (Kelvin)      0.00978     0.00641     0.00430
 Rotational constants (GHZ):           0.20387     0.13353     0.08965
 Zero-point vibrational energy    1043953.1 (Joules/Mol)
                                  249.51077 (Kcal/Mol)
 Warning -- explicit consideration of  35 degrees of freedom as
           vibrations may cause significant error
 Vibrational temperatures:     61.35    85.69   104.85   131.02   146.42
          (Kelvin)            168.93   206.39   216.84   258.21   305.98
                              339.34   366.16   406.49   428.31   442.67
                              452.39   488.76   491.46   511.22   527.92
                              582.66   623.79   658.94   675.05   707.36
                              725.97   750.38   759.35   760.73   775.45
                              802.45   804.89   821.32   870.21   876.85
                              911.73   928.60   937.27   948.91   954.08
                              969.46   991.12  1040.42  1087.35  1102.12
                             1107.79  1112.75  1124.54  1135.82  1147.10
                             1160.22  1171.13  1199.17  1215.64  1243.34
                             1247.78  1259.73  1272.72  1277.90  1296.90
                             1325.43  1339.17  1344.76  1345.23  1347.82
                             1376.78  1431.42  1433.07  1433.36  1437.78
                             1441.51  1456.39  1466.75  1473.80  1498.54
                             1507.52  1511.23  1537.20  1573.70  1595.42
                             1656.76  1674.95  1678.48  1690.06  1719.13
                             1727.55  1738.52  1741.04  1752.21  1787.24
                             1807.71  1821.93  1831.24  1856.35  1881.29
                             1905.12  1930.02  1950.56  1957.12  1989.13
                             2005.72  2037.81  2040.61  2051.71  2059.08
                             2080.52  2085.25  2110.78  2132.18  2145.10
                             2154.30  2161.49  2185.24  2203.38  2245.94
                             2277.20  2314.67  2326.56  2343.40  2348.88
                             2364.45  2396.83  2433.06  2449.25  2451.49
                             2461.19  4587.85  4588.05  4589.71  4591.20
                             4591.44  4593.25  4595.40  4606.60  4608.23
                             4608.67  4621.18  4628.97  4629.26  4629.51
                             4646.23  4655.02  4661.05  4666.73

 Zero-point correction=                           0.397621 (Hartree/Particle)
 Thermal correction to Energy=                    0.418227
 Thermal correction to Enthalpy=                  0.419172
 Thermal correction to Gibbs Free Energy=         0.349892
 Sum of electronic and zero-point Energies=          -1229.868405
 Sum of electronic and thermal Energies=             -1229.847798
 Sum of electronic and thermal Enthalpies=           -1229.846854
 Sum of electronic and thermal Free Energies=        -1229.916134

                     E (Thermal)             CV                S
                      KCal/Mol        Cal/Mol-Kelvin    Cal/Mol-Kelvin
 Total                  262.442             90.293            145.811
 Electronic               0.000              0.000              0.000
 Translational            0.889              2.981             43.866
 Rotational               0.889              2.981             36.131
 Vibrational            260.664             84.331             65.814
 Vibration     1          0.595              1.980              5.133
 Vibration     2          0.597              1.974              4.472
 Vibration     3          0.599              1.967              4.074
 Vibration     4          0.602              1.956              3.637
 Vibration     5          0.604              1.948              3.420
 Vibration     6          0.608              1.935              3.142
 Vibration     7          0.616              1.910              2.757
 Vibration     8          0.618              1.902              2.663
 Vibration     9          0.629              1.868              2.334
 Vibration    10          0.644              1.822              2.021
 Vibration    11          0.655              1.786              1.834
 Vibration    12          0.665              1.755              1.699
 Vibration    13          0.682              1.706              1.518
 Vibration    14          0.691              1.678              1.430
 Vibration    15          0.698              1.659              1.375
 Vibration    16          0.702              1.646              1.339
 Vibration    17          0.720              1.596              1.214
 Vibration    18          0.721              1.592              1.205
 Vibration    19          0.731              1.564              1.143
 Vibration    20          0.740              1.540              1.093
 Vibration    21          0.770              1.459              0.945
 Vibration    22          0.794              1.397              0.847
 Vibration    23          0.816              1.343              0.772
 Vibration    24          0.826              1.318              0.740
 Vibration    25          0.847              1.269              0.679
 Vibration    26          0.860              1.240              0.647
 Vibration    27          0.877              1.202              0.606
 Vibration    28          0.883              1.189              0.592
 Vibration    29          0.884              1.186              0.590
 Vibration    30          0.894              1.164              0.568
 Vibration    31          0.913              1.123              0.528
 Vibration    32          0.915              1.119              0.525
 Vibration    33          0.927              1.094              0.503
 Vibration    34          0.963              1.022              0.441
 Vibration    35          0.968              1.012              0.434

 Optimization completed.
    -- Stationary point found.
 Normal termination of Gaussian 09 at Thu Aug  1 13:47:34 2019.
