 Gaussian 09, Revision D.01,
 Gaussian 09:  AM64L-G09RevD.01 24-Apr-2013

 ----------------------------------------------------------------------
 #P wB97XD/def2tzvp opt=(tight) freq integral(Grid=ultrafine) # SCF(Max
 Cycle=380) 5d 7f GFPrint
 ----------------------------------------------------------------------

 ---------------------------------------
 The PBEPBE optimization and frequencies
 ---------------------------------------
 Symbolic Z-matrix:
 Charge =  0 Multiplicity = 1

 SCF Done:  E(RwB97XD) =  -195.333559788     A.U. after   12 cycles
 SCF Done:  E(RwB97XD) =  -195.333610577     A.U. after    9 cycles
 SCF Done:  E(RwB97XD) =  -195.333612147     A.U. after    8 cycles
 SCF Done:  E(RwB97XD) =  -195.333612782     A.U. after    7 cycles
 SCF Done:  E(RwB97XD) =  -195.333612927     A.U. after    7 cycles
 SCF Done:  E(RwB97XD) =  -195.333612951     A.U. after    6 cycles
 Optimization completed.
    -- Stationary point found.

 1\1\GINC-CN506-03-R\FOpt\RwB97XD\def2TZVP\C5H8\MINENKY\09-Jul-2021\0\\
 #P wB97XD/def2tzvp opt=(tight) freq integral(Grid=ultrafine) # SCF(Max
 Cycle=380) 5d 7f GFPrint\\The PBEPBE optimization and frequencies\\0,1
 \C,0.662676744,1.0687112408,-0.0485328347\C,-0.6626691501,1.0687157771
 ,-0.0485328362\C,1.2274191202,-0.3183262463,0.1039887919\C,-1.22742101
 01,-0.3183178491,0.103988783\C,-0.0000040241,-1.2203130664,-0.13554333
 22\H,1.2831382374,1.9538602011,-0.1073212786\H,-1.2831245926,1.9538689
 824,-0.1073212842\H,2.0399244076,-0.5254766051,-0.5954664706\H,-2.0399

 Normal termination of Gaussian 09 at Fri Jul  9 19:24:02 2021.

 ---------------------------------------------------------------------
 #P Geom=AllCheck Guess=TCheck SCRF=Check GenChk RwB97XD/def2TZVP Freq
 ---------------------------------------------------------------------

 Structure from the checkpoint file:  "m1_00_142-29-00_C5H8_wB97XD.chk"
 ---------------------------------------
 The PBEPBE optimization and frequencies
 ---------------------------------------
 Charge =  0 Multiplicity = 1

                         Standard orientation:
 ---------------------------------------------------------------------
 Center     Atomic      Atomic             Coordinates (Angstroms)
 Number     Number       Type             X           Y           Z
 ---------------------------------------------------------------------
      1          6           0        0.662673    1.069483   -0.047112
      2          6           0       -0.662673    1.069483   -0.047112
      3          6           0        1.227420   -0.317713    0.103939
      4          6           0       -1.227420   -0.317714    0.103939
      5          6           0        0.000000   -1.219450   -0.136549
      6          1           0        1.283131    1.954696   -0.104962
      7          1           0       -1.283132    1.954696   -0.104962
      8          1           0        2.039926   -0.524119   -0.595735
      9          1           0       -2.039926   -0.524120   -0.595735
     10          1           0        1.640437   -0.450470    1.109995
     11          1           0       -1.640436   -0.450471    1.109995
     12          1           0        0.000000   -1.556298   -1.174733
     13          1           0        0.000000   -2.108454    0.493499
 ---------------------------------------------------------------------

 SCF Done:  E(RwB97XD) =  -195.333612951     A.U. after    1 cycles

 The electronic state is 1-A.
 Alpha  occ. eigenvalues --  -10.27763 -10.27762 -10.27580 -10.27395 -10.27299
 Alpha  occ. eigenvalues --   -0.94234  -0.80453  -0.80123  -0.66550  -0.61714
 Alpha  occ. eigenvalues --   -0.58683  -0.55605  -0.48199  -0.46095  -0.43066
 Alpha  occ. eigenvalues --   -0.42674  -0.42354  -0.42038  -0.31902
 Alpha virt. eigenvalues --    0.09221   0.11623   0.15226   0.15463   0.15972
 Alpha virt. eigenvalues --    0.17618   0.18736   0.20368   0.21511   0.24172
 Alpha virt. eigenvalues --    0.24837   0.26445   0.27908   0.29056   0.31219

 Mulliken charges:
               1
     1  C   -0.177356
     2  C   -0.177356
     3  C   -0.124328
     4  C   -0.124328
     5  C   -0.211260
     6  H    0.118818
     7  H    0.118818
     8  H    0.098861
     9  H    0.098861
    10  H    0.091673
    11  H    0.091673
    12  H    0.094432
    13  H    0.101493
 Sum of Mulliken charges =   0.00000

 Dipole moment (field-independent basis, Debye):
    X=              0.0000    Y=             -0.2154    Z=              0.0908  Tot=              0.2338
 Quadrupole moment (field-independent basis, Debye-Ang):
   XX=            -30.5266   YY=            -31.2310   ZZ=            -32.4873
   XY=              0.0000   XZ=              0.0000   YZ=             -0.1163

  Exact polarizability:  65.585   0.000  56.675   0.000  -0.608  44.584
 Approx polarizability:  71.209   0.000  57.497   0.000  -0.759  51.917

                      1                      2                      3
                      A                      A                      A
 Frequencies --    149.4830               397.8487               617.7844
 Red. masses --      1.5879                 2.0101                 1.5894
 Frc consts  --      0.0209                 0.1875                 0.3574
 IR Inten    --      0.1959                 0.0492                12.4707

                      4                      5                      6
                      A                      A                      A
 Frequencies --    722.5689               790.8789               833.7486
 Red. masses --      1.3904                 5.1765                 1.6052
 Frc consts  --      0.4277                 1.9077                 0.6574
 IR Inten    --     37.3569                 0.2781                 1.1230

                      7                      8                      9
                      A                      A                      A
 Frequencies --    904.1229               921.9565               928.7997
 Red. masses --      1.5537                 3.0155                 1.7230
 Frc consts  --      0.7483                 1.5102                 0.8757
 IR Inten    --      3.7756                 0.5438                 8.2744

                     10                     11                     12
                      A                      A                      A
 Frequencies --    987.4620               992.6742              1054.7946
 Red. masses --      2.4766                 1.2506                 1.8503
 Frc consts  --      1.4228                 0.7261                 1.2129
 IR Inten    --      1.3599                 0.0630                 2.1175

                     13                     14                     15
                      A                      A                      A
 Frequencies --   1077.3327              1137.5090              1166.6510
 Red. masses --      1.7311                 1.0975                 1.1940
 Frc consts  --      1.1838                 0.8367                 0.9575
 IR Inten    --      8.6646                 0.1348                 1.7006

                     16                     17                     18
                      A                      A                      A
 Frequencies --   1238.5041              1242.7251              1318.9935
 Red. masses --      1.4037                 1.2115                 1.3386
 Frc consts  --      1.2686                 1.1024                 1.3721
 IR Inten    --      0.0017                 1.6820                 1.8150

                     19                     20                     21
                      A                      A                      A
 Frequencies --   1334.0726              1343.3705              1393.1451
 Red. masses --      1.2728                 1.7029                 1.6955
 Frc consts  --      1.3347                 1.8107                 1.9388
 IR Inten    --      0.2596                 1.5768                 2.4858

                     22                     23                     24
                      A                      A                      A
 Frequencies --   1489.3942              1496.3052              1516.8571
 Red. masses --      1.0814                 1.0884                 1.1055
 Frc consts  --      1.4133                 1.4358                 1.4986
 IR Inten    --      1.8947                 3.4185                 2.7557

                     25                     26                     27
                      A                      A                      A
 Frequencies --   1711.1654              3036.7325              3038.5820
 Red. masses --      6.2308                 1.0687                 1.0673
 Frc consts  --     10.7492                 5.8068                 5.8059
 IR Inten    --      2.8129                23.3760                55.4261

                     28                     29                     30
                      A                      A                      A
 Frequencies --   3071.6253              3088.9651              3093.7380
 Red. masses --      1.0721                 1.0955                 1.0851
 Frc consts  --      5.9597                 6.1584                 6.1190
 IR Inten    --     13.0605                25.9384                40.4754

                     31                     32                     33
                      A                      A                      A
 Frequencies --   3128.3715              3199.7249              3224.8785
 Red. masses --      1.1046                 1.0856                 1.1044
 Frc consts  --      6.3692                 6.5484                 6.7673
 IR Inten    --     37.8679                 6.2143                18.8344

 - Thermochemistry -
 -------------------
 Temperature   298.150 Kelvin.  Pressure   1.00000 Atm.
 Atom     1 has atomic number  6 and mass  12.00000

 Molecular mass:    68.06260 amu.
 Principal axes and moments of inertia in atomic units:
                           1         2         3
     Eigenvalues --   245.17218 247.19090 453.84350
           X            1.00000   0.00000   0.00000
           Y            0.00000   1.00000  -0.00003
           Z            0.00000   0.00003   1.00000
 This molecule is an asymmetric top.
 Rotational symmetry number  1.
 Rotational temperatures (Kelvin)      0.35328     0.35039     0.19085
 Rotational constants (GHZ):           7.36112     7.30100     3.97657
 Zero-point vibrational energy     308940.2 (Joules/Mol)
                                   73.83848 (Kcal/Mol)
 Warning -- explicit consideration of   3 degrees of freedom as
           vibrations may cause significant error
 Vibrational temperatures:    215.07   572.41   888.85  1039.61  1137.90
          (Kelvin)           1199.58  1300.83  1326.49  1336.33  1420.74
                             1428.24  1517.61  1550.04  1636.62  1678.55
                             1781.93  1788.00  1897.74  1919.43  1932.81
                             2004.42  2142.90  2152.85  2182.42  2461.98
                             4369.18  4371.84  4419.38  4444.33  4451.19
                             4501.02  4603.68  4639.88

 Zero-point correction=                           0.117669 (Hartree/Particle)
 Thermal correction to Energy=                    0.122270
 Thermal correction to Enthalpy=                  0.123214
 Thermal correction to Gibbs Free Energy=         0.090349
 Sum of electronic and zero-point Energies=           -195.215944
 Sum of electronic and thermal Energies=              -195.211343
 Sum of electronic and thermal Enthalpies=            -195.210399
 Sum of electronic and thermal Free Energies=         -195.243264

                     E (Thermal)             CV                S
                      KCal/Mol        Cal/Mol-Kelvin    Cal/Mol-Kelvin
 Total                   76.725             16.812             69.170
 Electronic               0.000              0.000              0.000
 Translational            0.889              2.981             38.571
 Rotational               0.889              2.981             24.823
 Vibrational             74.948             10.851              5.775
 Vibration     1          0.618              1.903              2.679
 Vibration     2          0.764              1.475              0.971
 Vibration     3          0.978              0.994              0.420

 Optimization completed.
    -- Stationary point found.

 1\1\GINC-CN506-03-R\Freq\RwB97XD\def2TZVP\C5H8\MINENKY\09-Jul-2021\0\\
 #P Geom=AllCheck Guess=TCheck SCRF=Check GenChk RwB97XD/def2TZVP Freq\
 \The PBEPBE optimization and frequencies\\0,1\C,0.662676744,1.06871124
 08,-0.0485328347\C,-0.6626691501,1.0687157771,-0.0485328362\C,1.227419
 1202,-0.3183262463,0.1039887919\C,-1.2274210101,-0.3183178491,0.103988
 783\C,-0.0000040241,-1.2203130664,-0.1355433322\H,1.2831382374,1.95386
 02011,-0.1073212786\H,-1.2831245926,1.9538689824,-0.1073212842\H,2.039
 9244076,-0.5254766051,-0.5954664706\H,-2.0399277119,-0.5254626447,-0.5

 Normal termination of Gaussian 09 at Fri Jul  9 19:28:32 2021.
