 Gaussian 09, Revision D.01,
 Gaussian 09:  AM64L-G09RevD.01 24-Apr-2013

 ----------------------------------------------------------------------
 #P wB97XD/def2tzvp opt=(tight) freq integral(Grid=ultrafine) # SCF(Max
 Cycle=380) 5d 7f GFPrint
 ----------------------------------------------------------------------

 ---------------------------------------
 The PBEPBE optimization and frequencies
 ---------------------------------------
 Symbolic Z-matrix:
 Charge =  0 Multiplicity = 1

 SCF Done:  E(RwB97XD) =  -1230.31091844     A.U. after   14 cycles
 SCF Done:  E(RwB97XD) =  -1230.31840700     A.U. after   13 cycles
 SCF Done:  E(RwB97XD) =  -1230.31907439     A.U. after   12 cycles
 SCF Done:  E(RwB97XD) =  -1230.31909493     A.U. after    9 cycles
 SCF Done:  E(RwB97XD) =  -1230.31909737     A.U. after    8 cycles
 SCF Done:  E(RwB97XD) =  -1230.31909766     A.U. after    6 cycles
 SCF Done:  E(RwB97XD) =  -1230.31909671     A.U. after    5 cycles
 SCF Done:  E(RwB97XD) =  -1230.31909754     A.U. after    5 cycles
 SCF Done:  E(RwB97XD) =  -1230.31909763     A.U. after    5 cycles
 SCF Done:  E(RwB97XD) =  -1230.31909763     A.U. after    2 cycles
 Optimization completed.
    -- Stationary point found.
 Normal termination of Gaussian 09 at Sat Jul 27 15:50:08 2019.

 ---------------------------------------------------------------------
 #P Geom=AllCheck Guess=TCheck SCRF=Check GenChk RwB97XD/def2TZVP Freq
 ---------------------------------------------------------------------

 Structure from the checkpoint file:  "m1_00_119123-35-2-C32H18_wB97XD.chk"
 ---------------------------------------
 The PBEPBE optimization and frequencies
 ---------------------------------------
 Charge =  0 Multiplicity = 1

                         Standard orientation:
 ---------------------------------------------------------------------
 Center     Atomic      Atomic             Coordinates (Angstroms)
 Number     Number       Type             X           Y           Z
 ---------------------------------------------------------------------
      1          6           0        1.224199   -2.800129    0.000000
      2          6           0       -1.217077   -1.432563    0.000000
      3          6           0       -2.442967    0.667916    0.000000
      4          6           0       -2.441046   -0.678320    0.000000
      5          6           0       -1.224199    1.419784    0.000000
      6          6           0       -1.224199    2.800129    0.000000
      7          6           0       -0.005946   -0.714578    0.000000
      8          6           0        1.224199   -1.419784    0.000000
      9          6           0        2.442968   -0.667916    0.000000
     10          6           0        2.441047    0.678319    0.000000
     11          6           0        1.217078    1.432563    0.000000
     12          6           0        0.005947    0.714578    0.000000
     13          6           0       -0.042036    3.542930    0.000000
     14          6           0        1.195612    2.853917    0.000000
     15          6           0        2.405608    3.624336    0.000000
     16          6           0        2.389992    4.970481    0.000000
     17          6           0        0.042036   -3.542930    0.000000
     18          6           0       -1.195611   -2.853917    0.000000
     19          6           0       -2.405608   -3.624336    0.000000
     20          6           0       -2.389992   -4.970481    0.000000
     21          6           0       -0.058530    5.000620    0.000000
     22          6           0        1.161924    5.703078    0.000000
     23          6           0        1.163925    7.108629    0.000000
     24          6           0       -0.010749    7.814540    0.000000
     25          6           0       -1.227221    7.124438    0.000000
     26          6           0       -1.247871    5.751545    0.000000
     27          6           0        0.058530   -5.000620    0.000000
     28          6           0       -1.161924   -5.703078    0.000000
     29          6           0       -1.163926   -7.108628    0.000000
     30          6           0        0.010749   -7.814541    0.000000
     31          6           0        1.227220   -7.124438    0.000000
     32          6           0        1.247871   -5.751545    0.000000
     33          1           0        2.182819   -3.299985    0.000000
     34          1           0       -3.380900    1.210689    0.000000
     35          1           0       -3.389833   -1.193500    0.000000
     36          1           0       -2.182819    3.299985    0.000000
     37          1           0        3.380900   -1.210689    0.000000
     38          1           0        3.389833    1.193500    0.000000
     39          1           0        3.360640    3.120995    0.000000
     40          1           0        3.320542    5.525709    0.000000
     41          1           0       -3.360640   -3.120994    0.000000
     42          1           0       -3.320542   -5.525708    0.000000
     43          1           0        2.115392    7.627488    0.000000
     44          1           0        0.000526    8.896918    0.000000
     45          1           0       -2.159768    7.674343    0.000000
     46          1           0       -2.206991    5.253862    0.000000
     47          1           0       -2.115393   -7.627488    0.000000
     48          1           0       -0.000527   -8.896918    0.000000
     49          1           0        2.159768   -7.674343    0.000000
     50          1           0        2.206991   -5.253863    0.000000
 ---------------------------------------------------------------------

 SCF Done:  E(RwB97XD) =  -1230.31909763     A.U. after    1 cycles

 The electronic state is 1-A'.
 Alpha  occ. eigenvalues --  -10.30598 -10.30597 -10.30571 -10.30571 -10.30526
 Alpha  occ. eigenvalues --  -10.30525 -10.30398 -10.30398 -10.30202 -10.30159
 Alpha  occ. eigenvalues --  -10.30035 -10.30034 -10.29973 -10.29973 -10.29353
 Alpha  occ. eigenvalues --  -10.29353 -10.29270 -10.29269 -10.29176 -10.29175
 Alpha  occ. eigenvalues --  -10.29163 -10.29163 -10.29116 -10.29116 -10.29107
 Alpha  occ. eigenvalues --  -10.29107 -10.29091 -10.29091 -10.29070 -10.29070
 Alpha  occ. eigenvalues --  -10.29010 -10.29010  -1.00995  -0.99360  -0.98080
 Alpha  occ. eigenvalues --   -0.95754  -0.94372  -0.93232  -0.90966  -0.90389
 Alpha  occ. eigenvalues --   -0.87768  -0.87330  -0.85920  -0.84752  -0.84700
 Alpha  occ. eigenvalues --   -0.82871  -0.81927  -0.80321  -0.75209  -0.74052
 Alpha  occ. eigenvalues --   -0.73486  -0.72216  -0.71996  -0.70968  -0.70357
 Alpha  occ. eigenvalues --   -0.68877  -0.66189  -0.64673  -0.62911  -0.62339
 Alpha  occ. eigenvalues --   -0.60911  -0.60798  -0.60314  -0.58958  -0.58715
 Alpha  occ. eigenvalues --   -0.57045  -0.55617  -0.54694  -0.54675  -0.53459
 Alpha  occ. eigenvalues --   -0.52901  -0.52557  -0.52153  -0.51585  -0.51145
 Alpha  occ. eigenvalues --   -0.50665  -0.50229  -0.50126  -0.50077  -0.49115
 Alpha  occ. eigenvalues --   -0.48595  -0.48499  -0.47320  -0.47266  -0.47102
 Alpha  occ. eigenvalues --   -0.45728  -0.45547  -0.44317  -0.44054  -0.42915
 Alpha  occ. eigenvalues --   -0.42376  -0.42315  -0.41161  -0.41040  -0.39740
 Alpha  occ. eigenvalues --   -0.39580  -0.39274  -0.36277  -0.35922  -0.34326
 Alpha  occ. eigenvalues --   -0.32508  -0.32172  -0.29992  -0.28623  -0.25345
 Alpha virt. eigenvalues --   -0.02322   0.00352   0.01843   0.03911   0.03960
 Alpha virt. eigenvalues --    0.05633   0.07066   0.08350   0.11938   0.12222
 Alpha virt. eigenvalues --    0.12223   0.12402   0.12583   0.12853   0.13271

 Mulliken charges:
               1
     1  C   -0.369247
     2  C    0.199390
     3  C   -0.245071
     4  C   -0.239075
     5  C    0.183128
     6  C   -0.369247
     7  C    0.000687
     8  C    0.183128
     9  C   -0.245071
    10  C   -0.239075
    11  C    0.199390
    12  C    0.000687
    13  C    0.210900
    14  C    0.178284
    15  C   -0.259209
    16  C   -0.209384
    17  C    0.210900
    18  C    0.178284
    19  C   -0.259209
    20  C   -0.209384
    21  C    0.081448
    22  C    0.113179
    23  C   -0.169996
    24  C   -0.106070
    25  C   -0.105464
    26  C   -0.204964
    27  C    0.081448
    28  C    0.113179
    29  C   -0.169996
    30  C   -0.106070
    31  C   -0.105464
    32  C   -0.204964
    33  H    0.094326
    34  H    0.100305
    35  H    0.094445
    36  H    0.094326
    37  H    0.100305
    38  H    0.094445
    39  H    0.097285
    40  H    0.103181
    41  H    0.097285
    42  H    0.103181
    43  H    0.110777
    44  H    0.117739
    45  H    0.115877
    46  H    0.107530
    47  H    0.110777
    48  H    0.117739
    49  H    0.115877
    50  H    0.107530
 Sum of Mulliken charges =   0.00000

 Dipole moment (field-independent basis, Debye):
    X=              0.0000    Y=              0.0000    Z=              0.0000  Tot=              0.0000
 Quadrupole moment (field-independent basis, Debye-Ang):
   XX=           -157.3408   YY=           -154.5164   ZZ=           -194.3557
   XY=             -0.1763   XZ=              0.0000   YZ=              0.0000

  Exact polarizability: 366.785  18.164 817.113   0.000   0.000 160.562
 Approx polarizability: 491.784   7.814 715.112   0.000   0.000 226.008

                      1                      2                      3
                     A"                     A"                     A"
 Frequencies --     21.9068                35.2757                49.9364
 Red. masses --      6.2202                 4.2853                 4.5834
 Frc consts  --      0.0018                 0.0031                 0.0067
 IR Inten    --      0.1259                 0.0105                 0.0000

                      4                      5                      6
                     A"                     A'                     A"
 Frequencies --     69.5999               100.1759               102.5331
 Red. masses --      4.9239                 5.8156                 4.2124
 Frc consts  --      0.0141                 0.0344                 0.0261
 IR Inten    --      0.0000                 0.2921                 0.4506

                      7                      8                      9
                     A"                     A"                     A'
 Frequencies --    152.7992               153.3786               176.2422
 Red. masses --      4.3783                 3.6265                 5.9367
 Frc consts  --      0.0602                 0.0503                 0.1086
 IR Inten    --      1.4379                 0.0000                 0.0000

                     10                     11                     12
                     A"                     A"                     A'
 Frequencies --    198.5540               205.3403               226.2578
 Red. masses --      3.9724                 4.8827                 6.7116
 Frc consts  --      0.0923                 0.1213                 0.2024
 IR Inten    --      2.7792                 0.0000                 0.0000

                     13                     14                     15
                     A"                     A"                     A'
 Frequencies --    240.4177               286.2544               299.5117
 Red. masses --      3.8216                 5.1379                 6.0950
 Frc consts  --      0.1301                 0.2481                 0.3221
 IR Inten    --      5.2679                 0.1415                 0.1558

                     16                     17                     18
                     A"                     A"                     A'
 Frequencies --    311.9626               363.4133               387.6644
 Red. masses --      3.6103                 4.7465                 5.3351
 Frc consts  --      0.2070                 0.3693                 0.4724
 IR Inten    --      0.0000                 0.0000                 0.0000

                     19                     20                     21
                     A'                     A"                     A"
 Frequencies --    393.5130               394.9009               431.7645
 Red. masses --      6.7003                 3.4161                 3.0443
 Frc consts  --      0.6113                 0.3139                 0.3344
 IR Inten    --      2.7791                 0.1718                 0.0000

                     22                     23                     24
                     A'                     A"                     A'
 Frequencies --    445.6074               450.0718               476.9037
 Red. masses --      5.8231                 3.1297                 5.0525
 Frc consts  --      0.6813                 0.3735                 0.6770
 IR Inten    --      0.0000                11.3790                 8.3540

                     25                     26                     27
                     A'                     A"                     A'
 Frequencies --    515.3733               517.1183               520.2422
 Red. masses --      8.0797                 3.7545                 6.9546
 Frc consts  --      1.2644                 0.5915                 1.1090
 IR Inten    --      0.0000                 0.0000                 7.6634

                     28                     29                     30
                     A"                     A"                     A'
 Frequencies --    531.4850               533.5338               540.5367
 Red. masses --      3.0967                 3.7138                 5.6787
 Frc consts  --      0.5154                 0.6229                 0.9776
 IR Inten    --      0.0000                 1.5587                10.5501

                     31                     32                     33
                     A'                     A'                     A"
 Frequencies --    541.6716               554.0187               564.8215
 Red. masses --      5.7589                 6.0904                 3.2572
 Frc consts  --      0.9955                 1.1014                 0.6122
 IR Inten    --      0.0000                 0.0000                 0.0000

                     34                     35                     36
                     A"                     A'                     A"
 Frequencies --    573.9940               585.8254               594.3151
 Red. masses --      2.8379                 6.7564                 3.0605
 Frc consts  --      0.5509                 1.3662                 0.6369
 IR Inten    --     14.8460                 5.0007                 0.0000

                     37                     38                     39
                     A'                     A'                     A"
 Frequencies --    607.2116               657.2384               659.1806
 Red. masses --      6.9634                 6.8733                 3.8413
 Frc consts  --      1.5127                 1.7493                 0.9834
 IR Inten    --      0.0000                19.9166                11.3643

                     40                     41                     42
                     A'                     A"                     A"
 Frequencies --    663.6295               705.1945               705.6958
 Red. masses --      6.6489                 3.3622                 2.7288
 Frc consts  --      1.7252                 0.9851                 0.8007
 IR Inten    --      0.0000                 8.4942                 0.0000

                     43                     44                     45
                     A"                     A'                     A'
 Frequencies --    730.5049               741.9057               748.6497
 Red. masses --      1.9967                 6.4099                 6.0673
 Frc consts  --      0.6278                 2.0787                 2.0036
 IR Inten    --      2.4472                 4.4148                 0.0000

                     46                     47                     48
                     A"                     A"                     A'
 Frequencies --    769.6677               772.1746               783.6706
 Red. masses --      1.3906                 1.3355                 5.9364
 Frc consts  --      0.4853                 0.4692                 2.1480
 IR Inten    --      0.0000                47.2565                 0.0000

                     49                     50                     51
                     A'                     A"                     A'
 Frequencies --    793.6580               799.9273               814.2283
 Red. masses --      5.8430                 1.6465                 5.6202
 Frc consts  --      2.1684                 0.6207                 2.1953
 IR Inten    --      0.3103                 0.0000                39.5930

                     52                     53                     54
                     A"                     A"                     A"
 Frequencies --    816.6435               826.8748               828.1554
 Red. masses --      1.6730                 1.9898                 1.5379
 Frc consts  --      0.6574                 0.8015                 0.6214
 IR Inten    --     25.9586                81.3654                 0.0000

                     55                     56                     57
                     A"                     A"                     A'
 Frequencies --    840.6570               862.2712               873.0970
 Red. masses --      2.7775                 2.4432                 6.2126
 Frc consts  --      1.1565                 1.0703                 2.7903
 IR Inten    --      0.0000                44.8177                 0.0000

                     58                     59                     60
                     A"                     A"                     A'
 Frequencies --    892.2950               899.8127               901.1602
 Red. masses --      2.6707                 1.6336                 4.1976
 Frc consts  --      1.2528                 0.7793                 2.0084
 IR Inten    --      0.0000                 0.5608                 8.8931

                     61                     62                     63
                     A"                     A'                     A'
 Frequencies --    902.3302               907.7511               914.4327
 Red. masses --      1.6608                 4.1752                 5.3265
 Frc consts  --      0.7967                 2.0270                 2.6242
 IR Inten    --      0.0000                 0.0000                 0.6537

                     64                     65                     66
                     A"                     A"                     A"
 Frequencies --    919.3748               924.0704               965.5274
 Red. masses --      2.6774                 3.9921                 1.3201
 Frc consts  --      1.3333                 2.0085                 0.7251
 IR Inten    --     28.7334                 0.0000                 0.0000

                     67                     68                     69
                     A"                     A"                     A"
 Frequencies --    967.1610               974.6069               977.3823
 Red. masses --      1.3264                 1.3579                 1.3689
 Frc consts  --      0.7310                 0.7600                 0.7705
 IR Inten    --      0.7660                 2.2445                 0.0000

                     70                     71                     72
                     A"                     A"                     A"
 Frequencies --    989.6473               990.2293               998.3693
 Red. masses --      1.2855                 1.3000                 1.2901
 Frc consts  --      0.7418                 0.7510                 0.7576
 IR Inten    --      0.0000                 1.9899                 0.2825

                     73                     74                     75
                     A"                     A'                     A'
 Frequencies --    998.6911              1016.7693              1028.3815
 Red. masses --      1.2906                 5.0635                 7.5202
 Frc consts  --      0.7584                 3.0842                 4.6858
 IR Inten    --      0.0000                 0.0000                 4.8464

                     76                     77                     78
                     A'                     A'                     A'
 Frequencies --   1074.1807              1077.1161              1110.6663
 Red. masses --      2.4059                 2.1842                 2.8387
 Frc consts  --      1.6356                 1.4931                 2.0632
 IR Inten    --     17.0136                 0.0000                 1.0541

                     79                     80                     81
                     A'                     A'                     A'
 Frequencies --   1125.5441              1155.7028              1160.1295
 Red. masses --      2.8545                 2.1223                 2.1909
 Frc consts  --      2.1306                 1.6701                 1.7374
 IR Inten    --      0.0000                 5.6758                 0.0000

                     82                     83                     84
                     A'                     A'                     A'
 Frequencies --   1184.1167              1186.3701              1194.4807
 Red. masses --      1.4797                 2.1070                 1.2395
 Frc consts  --      1.2224                 1.7472                 1.0420
 IR Inten    --      0.0000                 2.6957                 0.0000

                     85                     86                     87
                     A'                     A'                     A'
 Frequencies --   1194.5812              1207.7109              1209.0510
 Red. masses --      1.3001                 1.1874                 1.3976
 Frc consts  --      1.0931                 1.0204                 1.2037
 IR Inten    --      1.6372                 5.2601                 0.0000

                     88                     89                     90
                     A'                     A'                     A'
 Frequencies --   1242.8170              1246.1654              1262.1582
 Red. masses --      2.4293                 1.7690                 1.6825
 Frc consts  --      2.2108                 1.6185                 1.5791
 IR Inten    --      0.0000                 2.2617                12.1701

                     91                     92                     93
                     A'                     A'                     A'
 Frequencies --   1264.9567              1272.4419              1283.9439
 Red. masses --      1.4161                 1.8527                 1.7698
 Frc consts  --      1.3350                 1.7674                 1.7190
 IR Inten    --      0.0000                 6.6715                 0.0000

                     94                     95                     96
                     A'                     A'                     A'
 Frequencies --   1297.8243              1305.2050              1322.5990
 Red. masses --      1.8495                 1.6401                 2.1183
 Frc consts  --      1.8354                 1.6462                 2.1832
 IR Inten    --      0.0000                 5.8191                16.1216

                     97                     98                     99
                     A'                     A'                     A'
 Frequencies --   1332.8144              1368.4132              1379.9227
 Red. masses --      3.0714                 5.9714                 2.5785
 Frc consts  --      3.2146                 6.5882                 2.8929
 IR Inten    --      0.0000                 0.8070                 0.0000

                    100                    101                    102
                     A'                     A'                     A'
 Frequencies --   1383.3267              1387.9473              1402.6602
 Red. masses --      6.2226                 2.9617                 3.7195
 Frc consts  --      7.0157                 3.3615                 4.3116
 IR Inten    --      0.0000                 5.2833                 0.0000

                    103                    104                    105
                     A'                     A'                     A'
 Frequencies --   1411.6782              1431.6181              1445.2753
 Red. masses --      4.1281                 3.5148                 4.4201
 Frc consts  --      4.8470                 4.2443                 5.4398
 IR Inten    --      3.0135                 0.0000                 0.0000

                    106                    107                    108
                     A'                     A'                     A'
 Frequencies --   1459.2706              1474.7001              1474.7896
 Red. masses --      2.8043                 2.2593                 1.9045
 Frc consts  --      3.5185                 2.8949                 2.4406
 IR Inten    --      9.1353                 0.0000                 9.6537

                    109                    110                    111
                     A'                     A'                     A'
 Frequencies --   1496.0066              1501.5265              1506.6865
 Red. masses --      2.7019                 2.7713                 2.6127
 Frc consts  --      3.5628                 3.6813                 3.4945
 IR Inten    --      0.0000                19.4408                 0.0000

                    112                    113                    114
                     A'                     A'                     A'
 Frequencies --   1517.9231              1526.9395              1569.0088
 Red. masses --      4.0959                 3.5152                 3.9949
 Frc consts  --      5.5604                 4.8289                 5.7944
 IR Inten    --      0.1542                 1.3214                17.0583

                    115                    116                    117
                     A'                     A'                     A'
 Frequencies --   1570.6741              1576.2578              1607.7300
 Red. masses --      3.4228                 5.5427                 5.9174
 Frc consts  --      4.9751                 8.1138                 9.0117
 IR Inten    --      0.0000                 0.0000                 0.8790

                    118                    119                    120
                     A'                     A'                     A'
 Frequencies --   1637.2022              1656.8977              1663.9909
 Red. masses --      6.4714                 6.7079                 7.0692
 Frc consts  --     10.2201                10.8500                11.5325
 IR Inten    --      0.0000                 9.9046                 0.0000

                    121                    122                    123
                     A'                     A'                     A'
 Frequencies --   1678.9743              1684.9159              1688.7494
 Red. masses --      6.1918                 5.9805                 6.2941
 Frc consts  --     10.2839                10.0033                10.5758
 IR Inten    --      3.7226                 0.0000                 5.8206

                    124                    125                    126
                     A'                     A'                     A'
 Frequencies --   1701.1935              1704.1236              1715.0861
 Red. masses --      6.4475                 6.4955                 7.3297
 Frc consts  --     10.9939                11.1139                12.7031
 IR Inten    --      0.0000                 0.2009                 0.0000

                    127                    128                    129
                     A'                     A'                     A'
 Frequencies --   3190.1017              3190.1152              3193.6592
 Red. masses --      1.0871                 1.0871                 1.0887
 Frc consts  --      6.5182                 6.5183                 6.5427
 IR Inten    --      4.2448                 0.0000                 1.4929

                    130                    131                    132
                     A'                     A'                     A'
 Frequencies --   3193.7397              3195.5329              3195.5419
 Red. masses --      1.0889                 1.0899                 1.0898
 Frc consts  --      6.5436                 6.5574                 6.5568
 IR Inten    --      0.0000                23.3233                 0.0000

                    133                    134                    135
                     A'                     A'                     A'
 Frequencies --   3201.8966              3201.9033              3215.0062
 Red. masses --      1.0896                 1.0896                 1.0932
 Frc consts  --      6.5815                 6.5815                 6.6573
 IR Inten    --      0.0000                21.0075                34.4802

                    136                    137                    138
                     A'                     A'                     A'
 Frequencies --   3215.0887              3220.7933              3220.8519
 Red. masses --      1.0931                 1.0947                 1.0947
 Frc consts  --      6.6575                 6.6908                 6.6908
 IR Inten    --      0.0000                25.5700                 0.0000

                    139                    140                    141
                     A'                     A'                     A'
 Frequencies --   3228.7635              3228.8655              3238.6028
 Red. masses --      1.0949                 1.0949                 1.0901
 Frc consts  --      6.7252                 6.7252                 6.7367
 IR Inten    --      1.9017                 0.0000                24.7777

                    142                    143                    144
                     A'                     A'                     A'
 Frequencies --   3238.6510              3251.0645              3251.1228
 Red. masses --      1.0901                 1.0898                 1.0897
 Frc consts  --      6.7368                 6.7863                 6.7864
 IR Inten    --      0.0000                33.7731                 0.0001

 - Thermochemistry -
 -------------------
 Temperature   298.150 Kelvin.  Pressure   1.00000 Atm.
 Atom     1 has atomic number  6 and mass  12.00000

 Molecular mass:   402.14085 amu.
 Principal axes and moments of inertia in atomic units:
                           1         2         3
     Eigenvalues --  3360.12537********************
           X            0.06419   0.99794   0.00000
           Y            0.99794  -0.06419   0.00000
           Z            0.00000   0.00000   1.00000
 This molecule is an asymmetric top.
 Rotational symmetry number  1.
 Warning -- assumption of classical behavior for rotation
           may cause significant error
 Rotational temperatures (Kelvin)      0.02578     0.00289     0.00260
 Rotational constants (GHZ):           0.53711     0.06026     0.05418
 Zero-point vibrational energy    1046257.0 (Joules/Mol)
                                  250.06143 (Kcal/Mol)
 Warning -- explicit consideration of  37 degrees of freedom as
           vibrations may cause significant error
 Vibrational temperatures:     31.52    50.75    71.85   100.14   144.13
          (Kelvin)            147.52   219.84   220.68   253.57   285.67
                              295.44   325.53   345.91   411.86   430.93
                              448.84   522.87   557.76   566.18   568.17
                              621.21   641.13   647.55   686.16   741.51
                              744.02   748.51   764.69   767.64   777.71
                              779.34   797.11   812.65   825.85   842.87
                              855.09   873.64   945.62   948.41   954.81
                             1014.62  1015.34  1051.03  1067.44  1077.14
                             1107.38  1110.99  1127.53  1141.90  1150.92
                             1171.49  1174.97  1189.69  1191.53  1209.52
                             1240.61  1256.19  1283.81  1294.63  1296.57
                             1298.25  1306.05  1315.66  1322.77  1329.53
                             1389.18  1391.53  1402.24  1406.23  1423.88
                             1424.72  1436.43  1436.89  1462.90  1479.61
                             1545.50  1549.73  1598.00  1619.40  1662.80
                             1669.17  1703.68  1706.92  1718.59  1718.73
                             1737.62  1739.55  1788.13  1792.95  1815.96
                             1819.99  1830.76  1847.31  1867.28  1877.90
                             1902.92  1917.62  1968.84  1985.40  1990.30
                             1996.94  2018.11  2031.09  2059.78  2079.43
                             2099.56  2121.76  2121.89  2152.42  2160.36
                             2167.78  2183.95  2196.92  2257.45  2259.85
                             2267.88  2313.16  2355.57  2383.90  2394.11
                             2415.67  2424.22  2429.73  2447.63  2451.85
                             2467.62  4589.84  4589.86  4594.96  4595.07
                             4597.65  4597.67  4606.81  4606.82  4625.67
                             4625.79  4634.00  4634.08  4645.46  4645.61
                             4659.62  4659.69  4677.55  4677.63

 Zero-point correction=                           0.398498 (Hartree/Particle)
 Thermal correction to Energy=                    0.419368
 Thermal correction to Enthalpy=                  0.420313
 Thermal correction to Gibbs Free Energy=         0.348860
 Sum of electronic and zero-point Energies=          -1229.920599
 Sum of electronic and thermal Energies=             -1229.899729
 Sum of electronic and thermal Enthalpies=           -1229.898785
 Sum of electronic and thermal Free Energies=        -1229.970238

                     E (Thermal)             CV                S
                      KCal/Mol        Cal/Mol-Kelvin    Cal/Mol-Kelvin
 Total                  263.158             90.329            150.385
 Electronic               0.000              0.000              0.000
 Translational            0.889              2.981             43.866
 Rotational               0.889              2.981             36.459
 Vibrational            261.380             84.368             70.059
 Vibration     1          0.593              1.985              6.453
 Vibration     2          0.594              1.982              5.508
 Vibration     3          0.595              1.978              4.820
 Vibration     4          0.598              1.969              4.165
 Vibration     5          0.604              1.949              3.451
 Vibration     6          0.605              1.947              3.406
 Vibration     7          0.619              1.900              2.637
 Vibration     8          0.619              1.899              2.630
 Vibration     9          0.628              1.872              2.368
 Vibration    10          0.637              1.842              2.146
 Vibration    11          0.640              1.832              2.085
 Vibration    12          0.650              1.801              1.908
 Vibration    13          0.657              1.779              1.800
 Vibration    14          0.684              1.699              1.496
 Vibration    15          0.692              1.675              1.420
 Vibration    16          0.700              1.651              1.352
 Vibration    17          0.737              1.548              1.107
 Vibration    18          0.756              1.497              1.009
 Vibration    19          0.761              1.484              0.987
 Vibration    20          0.762              1.481              0.982
 Vibration    21          0.793              1.401              0.853
 Vibration    22          0.805              1.371              0.809
 Vibration    23          0.809              1.361              0.796
 Vibration    24          0.833              1.301              0.718
 Vibration    25          0.870              1.216              0.621
 Vibration    26          0.872              1.212              0.617
 Vibration    27          0.875              1.205              0.609
 Vibration    28          0.886              1.180              0.584
 Vibration    29          0.889              1.176              0.579
 Vibration    30          0.896              1.160              0.564
 Vibration    31          0.897              1.158              0.562
 Vibration    32          0.909              1.131              0.536
 Vibration    33          0.921              1.107              0.514
 Vibration    34          0.930              1.088              0.497
 Vibration    35          0.943              1.062              0.475
 Vibration    36          0.952              1.044              0.460
 Vibration    37          0.966              1.017              0.437

 Normal termination of Gaussian 09 at Sat Jul 27 23:11:14 2019.
