 Gaussian 09, Revision D.01,
 Gaussian 09:  AM64L-G09RevD.01 24-Apr-2013

 ----------------------------------------------------------------------
 #P wB97XD/def2tzvp opt=(tight) freq integral(Grid=ultrafine) # SCF(Max
 Cycle=380) 5d 7f GFPrint
 ----------------------------------------------------------------------

 ---------------------------------------
 The PBEPBE optimization and frequencies
 ---------------------------------------
 Symbolic Z-matrix:
 Charge =  0 Multiplicity = 1

 SCF Done:  E(RwB97XD) =  -1229.11142022     A.U. after   15 cycles
 SCF Done:  E(RwB97XD) =  -1229.11760787     A.U. after   13 cycles
 SCF Done:  E(RwB97XD) =  -1229.11808865     A.U. after   12 cycles
 SCF Done:  E(RwB97XD) =  -1229.11809901     A.U. after    9 cycles
 SCF Done:  E(RwB97XD) =  -1229.11810013     A.U. after    8 cycles
 SCF Done:  E(RwB97XD) =  -1229.11810022     A.U. after    7 cycles
 SCF Done:  E(RwB97XD) =  -1229.11810023     A.U. after    5 cycles
 Optimization completed.
    -- Stationary point found.

 1\1\GINC-DS503-29\FOpt\RwB97XD\def2TZVP\C32H16\MINENKY\28-Jul-2019\0\\
 #P wB97XD/def2tzvp opt=(tight) freq integral(Grid=ultrafine) # SCF(Max
 Cycle=380) 5d 7f GFPrint\\The PBEPBE optimization and frequencies\\0,1
 \C,2.7207694429,1.7388436963,0.\C,2.1444617484,-1.0094658645,0.\C,1.81
 51530415,-2.3473492476,0.\C,-3.4061647713,2.4022052394,0.\C,-2.0902269
 199,2.8439419435,0.\C,0.5560759704,3.7066346477,0.\C,-0.4936215206,4.6
 460166791,0.\C,-1.7855278845,4.230938965,0.\C,-1.0285488485,1.88927094
 35,0.\C,-1.3253728121,0.5159207767,0.\C,-0.2449912775,-0.4618172691,0.

 Normal termination of Gaussian 09 at Sun Jul 28 02:47:44 2019.

 ---------------------------------------------------------------------
 #P Geom=AllCheck Guess=TCheck SCRF=Check GenChk RwB97XD/def2TZVP Freq
 ---------------------------------------------------------------------

 Structure from the checkpoint file:  "m1_00_120835-99-6-C32H16_wB97XD.chk"
 ---------------------------------------
 The PBEPBE optimization and frequencies
 ---------------------------------------
 Charge =  0 Multiplicity = 1

                         Standard orientation:
 ---------------------------------------------------------------------
 Center     Atomic      Atomic             Coordinates (Angstroms)
 Number     Number       Type             X           Y           Z
 ---------------------------------------------------------------------
      1          6           0        1.534899   -2.835112    0.000000
      2          6           0        2.356956   -0.150050    0.000000
      3          6           0        2.714433    1.180584    0.000000
      4          6           0       -4.151037   -0.458243    0.000000
      5          6           0       -3.211848   -1.480373    0.000000
      6          6           0       -1.310804   -3.513397    0.000000
      7          6           0       -2.683574   -3.829319    0.000000
      8          6           0       -3.614587   -2.842138    0.000000
      9          6           0       -1.821205   -1.156845    0.000000
     10          6           0       -1.418158    0.189167    0.000000
     11          6           0        0.000000    0.523866    0.000000
     12          6           0        0.967745   -0.486722    0.000000
     13          6           0        0.572995   -1.879303    0.000000
     14          6           0       -0.860644   -2.216750    0.000000
     15          6           0        1.767773    2.206865    0.000000
     16          6           0        0.386428    1.882423    0.000000
     17          6           0       -0.575670    2.936924    0.000000
     18          6           0       -0.129342    4.237675    0.000000
     19          6           0        1.239177    4.554242    0.000000
     20          6           0        2.171600    3.563800    0.000000
     21          6           0       -2.381971    1.212458    0.000000
     22          6           0       -3.770272    0.875862    0.000000
     23          6           0       -4.743557    1.911372    0.000000
     24          6           0       -4.358804    3.212089    0.000000
     25          6           0       -2.990260    3.549252    0.000000
     26          6           0       -2.005512    2.594483    0.000000
     27          6           0        2.931129   -2.542532    0.000000
     28          6           0        3.362849   -1.206519    0.000000
     29          6           0        4.743813   -0.957106    0.000000
     30          6           0        5.655243   -1.986426    0.000000
     31          6           0        5.220277   -3.314387    0.000000
     32          6           0        3.875598   -3.583805    0.000000
     33          1           0        1.267455   -3.882895    0.000000
     34          1           0        3.756355    1.468558    0.000000
     35          1           0       -5.205940   -0.708173    0.000000
     36          1           0       -0.609700   -4.335489    0.000000
     37          1           0       -2.985839   -4.868806    0.000000
     38          1           0       -4.673027   -3.072133    0.000000
     39          1           0       -0.834954    5.056035    0.000000
     40          1           0        1.542651    5.593353    0.000000
     41          1           0        3.229957    3.794652    0.000000
     42          1           0       -5.791946    1.639119    0.000000
     43          1           0       -5.097771    4.003176    0.000000
     44          1           0       -2.732734    4.598608    0.000000
     45          1           0        5.115933    0.057540    0.000000
     46          1           0        6.714777   -1.764547    0.000000
     47          1           0        5.940174   -4.122734    0.000000
     48          1           0        3.522582   -4.608469    0.000000
 ---------------------------------------------------------------------

 SCF Done:  E(RwB97XD) =  -1229.11810022     A.U. after    1 cycles

 The electronic state is 1-A'.
 Alpha  occ. eigenvalues --  -10.30620 -10.30604 -10.30583 -10.30572 -10.30571
 Alpha  occ. eigenvalues --  -10.30554 -10.30538 -10.30533 -10.30360 -10.30326
 Alpha  occ. eigenvalues --  -10.30315 -10.30272 -10.30113 -10.30112 -10.30072
 Alpha  occ. eigenvalues --  -10.30018 -10.29195 -10.29177 -10.29167 -10.29152
 Alpha  occ. eigenvalues --  -10.29145 -10.29110 -10.29109 -10.29095 -10.29085
 Alpha  occ. eigenvalues --  -10.29082 -10.29077 -10.29063 -10.29045 -10.29039
 Alpha  occ. eigenvalues --  -10.29036 -10.29022  -1.01595  -0.99084  -0.98341
 Alpha  occ. eigenvalues --   -0.96688  -0.94408  -0.92705  -0.92234  -0.90268
 Alpha  occ. eigenvalues --   -0.88524  -0.87224  -0.85925  -0.84894  -0.84148
 Alpha  occ. eigenvalues --   -0.83300  -0.82430  -0.78439  -0.76215  -0.74683
 Alpha  occ. eigenvalues --   -0.73891  -0.73251  -0.72227  -0.70336  -0.69565
 Alpha  occ. eigenvalues --   -0.67276  -0.66131  -0.64749  -0.63474  -0.62953
 Alpha  occ. eigenvalues --   -0.62136  -0.60082  -0.59228  -0.58570  -0.57023
 Alpha  occ. eigenvalues --   -0.56470  -0.55836  -0.54886  -0.54522  -0.53542
 Alpha  occ. eigenvalues --   -0.52909  -0.52857  -0.52128  -0.51303  -0.51163
 Alpha  occ. eigenvalues --   -0.50964  -0.50236  -0.49782  -0.48974  -0.48826
 Alpha  occ. eigenvalues --   -0.48305  -0.48002  -0.47135  -0.46721  -0.45715
 Alpha  occ. eigenvalues --   -0.45145  -0.44588  -0.43877  -0.43591  -0.42940
 Alpha  occ. eigenvalues --   -0.42206  -0.42188  -0.41263  -0.40008  -0.39224
 Alpha  occ. eigenvalues --   -0.38929  -0.36817  -0.35780  -0.34319  -0.32125
 Alpha  occ. eigenvalues --   -0.31537  -0.30837  -0.29367  -0.23045
 Alpha virt. eigenvalues --   -0.04755   0.01003   0.02583   0.03181   0.04159
 Alpha virt. eigenvalues --    0.05237   0.07357   0.09369   0.11219   0.11950
 Alpha virt. eigenvalues --    0.12177   0.12555   0.13601   0.13688   0.13795

 Mulliken charges:
               1
     1  C   -0.314652
     2  C    0.252583
     3  C   -0.346098
     4  C   -0.306404
     5  C    0.204921
     6  C   -0.142479
     7  C   -0.093424
     8  C   -0.209458
     9  C   -0.077172
    10  C    0.065175
    11  C    0.050635
    12  C   -0.025176
    13  C    0.107432
    14  C    0.032121
    15  C    0.205536
    16  C   -0.039352
    17  C    0.091906
    18  C   -0.173898
    19  C   -0.079814
    20  C   -0.239669
    21  C   -0.059766
    22  C    0.214105
    23  C   -0.211812
    24  C   -0.085242
    25  C   -0.164559
    26  C    0.059132
    27  C    0.146809
    28  C    0.055238
    29  C   -0.189932
    30  C   -0.102178
    31  C   -0.105943
    32  C   -0.198204
    33  H    0.090116
    34  H    0.090113
    35  H    0.099184
    36  H    0.102102
    37  H    0.111853
    38  H    0.107658
    39  H    0.097233
    40  H    0.111520
    41  H    0.106233
    42  H    0.107666
    43  H    0.112159
    44  H    0.097832
    45  H    0.105412
    46  H    0.115621
    47  H    0.116513
    48  H    0.108425
 Sum of Mulliken charges =   0.00000

 Dipole moment (field-independent basis, Debye):
    X=              0.0491    Y=              0.0105    Z=              0.0000  Tot=              0.0502
 Quadrupole moment (field-independent basis, Debye-Ang):
   XX=           -155.1416   YY=           -154.2335   ZZ=           -191.8595
   XY=             -0.4977   XZ=              0.0000   YZ=              0.0000

  Exact polarizability: 636.224 -49.314 517.215   0.000   0.000 154.641
 Approx polarizability: 670.255 -29.763 608.264   0.000   0.000 221.963

                      1                      2                      3
                     A"                     A"                     A"
 Frequencies --      8.3730                38.8638                64.8414
 Red. masses --      5.2937                 4.0614                 5.0009
 Frc consts  --      0.0002                 0.0036                 0.0124
 IR Inten    --      0.0000                 0.0428                 0.5242

                      4                      5                      6
                     A"                     A"                     A"
 Frequencies --     77.8544               108.3217               148.7297
 Red. masses --      4.8094                 4.7061                 4.5405
 Frc consts  --      0.0172                 0.0325                 0.0592
 IR Inten    --      1.0774                 1.9771                 0.3183

                      7                      8                      9
                     A"                     A'                     A"
 Frequencies --    168.1935               172.0614               214.9246
 Red. masses --      4.2184                 5.3810                 4.3468
 Frc consts  --      0.0703                 0.0939                 0.1183
 IR Inten    --      0.0264                 0.0857                 0.0669

                     10                     11                     12
                     A'                     A"                     A"
 Frequencies --    266.6880               268.9747               278.9845
 Red. masses --      7.1395                 4.6848                 4.0259
 Frc consts  --      0.2992                 0.1997                 0.1846
 IR Inten    --      0.2310                 0.2425                 0.0457

                     13                     14                     15
                     A"                     A'                     A"
 Frequencies --    291.3380               300.8816               313.0926
 Red. masses --      3.6108                 5.7980                 4.8518
 Frc consts  --      0.1806                 0.3093                 0.2802
 IR Inten    --      0.2369                 0.0947                 0.0719

                     16                     17                     18
                     A'                     A'                     A"
 Frequencies --    333.1618               341.7525               349.7666
 Red. masses --      5.3209                 6.5191                 5.1922
 Frc consts  --      0.3480                 0.4486                 0.3742
 IR Inten    --      2.3925                 2.0018                 0.5446

                     19                     20                     21
                     A'                     A'                     A"
 Frequencies --    382.0696               415.3363               432.8570
 Red. masses --      7.4231                 5.9701                 4.8832
 Frc consts  --      0.6384                 0.6068                 0.5391
 IR Inten    --      1.7957                 0.9799                 1.2536

                     22                     23                     24
                     A"                     A'                     A"
 Frequencies --    464.9731               466.7822               501.9307
 Red. masses --      3.4406                 6.7027                 3.2633
 Frc consts  --      0.4383                 0.8605                 0.4844
 IR Inten    --      5.9575                 0.2318                 0.0211

                     25                     26                     27
                     A'                     A"                     A"
 Frequencies --    506.1232               520.7214               539.4131
 Red. masses --      6.2930                 3.5630                 3.3175
 Frc consts  --      0.9498                 0.5692                 0.5687
 IR Inten    --      0.8806                 0.5853                 1.2797

                     28                     29                     30
                     A'                     A"                     A'
 Frequencies --    555.3656               558.6576               563.6296
 Red. masses --      6.7153                 4.0891                 6.6838
 Frc consts  --      1.2203                 0.7519                 1.2510
 IR Inten    --      0.0198                 9.2770                 0.9480

                     31                     32                     33
                     A"                     A'                     A"
 Frequencies --    575.4576               580.5375               603.9440
 Red. masses --      3.6837                 7.3499                 3.8952
 Frc consts  --      0.7187                 1.4595                 0.8371
 IR Inten    --      0.3234                 1.2719                 1.2695

                     34                     35                     36
                     A'                     A'                     A'
 Frequencies --    610.0722               619.7166               644.9137
 Red. masses --      6.0738                 6.5455                 7.6173
 Frc consts  --      1.3319                 1.4811                 1.8666
 IR Inten    --      1.8133                 9.3160                 4.1765

                     37                     38                     39
                     A"                     A"                     A'
 Frequencies --    651.6659               665.8015               671.3136
 Red. masses --      4.2732                 3.0703                 6.1819
 Frc consts  --      1.0692                 0.8019                 1.6414
 IR Inten    --      2.3668                 0.6288                 2.1043

                     40                     41                     42
                     A"                     A'                     A'
 Frequencies --    680.3534               680.8657               704.6073
 Red. masses --      3.0707                 5.8801                 6.7325
 Frc consts  --      0.8374                 1.6060                 1.9693
 IR Inten    --      6.1632                15.4309                 2.9377

                     43                     44                     45
                     A'                     A"                     A"
 Frequencies --    754.4994               760.6014               765.6397
 Red. masses --      6.7186                 2.7739                 1.7217
 Frc consts  --      2.2534                 0.9455                 0.5947
 IR Inten    --      6.1517                 3.8627                39.4191

                     46                     47                     48
                     A"                     A"                     A"
 Frequencies --    775.2624               783.3089               791.1671
 Red. masses --      1.3768                 1.3749                 1.5481
 Frc consts  --      0.4876                 0.4970                 0.5709
 IR Inten    --      5.9778                63.1553                13.7562

                     49                     50                     51
                     A'                     A"                     A"
 Frequencies --    792.6093               825.6484               845.4681
 Red. masses --      6.6356                 2.8688                 3.0404
 Frc consts  --      2.4561                 1.1522                 1.2805
 IR Inten    --     17.5587                12.4702                 9.0186

                     52                     53                     54
                     A'                     A"                     A'
 Frequencies --    853.8949               855.5005               871.9286
 Red. masses --      6.3224                 3.1341                 6.6710
 Frc consts  --      2.7161                 1.3515                 2.9882
 IR Inten    --      3.8263                11.7027                 0.5356

                     55                     56                     57
                     A"                     A"                     A"
 Frequencies --    882.3102               886.6903               905.4179
 Red. masses --      1.5101                 1.8292                 1.7519
 Frc consts  --      0.6926                 0.8473                 0.8462
 IR Inten    --      4.0343                 6.7547                30.8808

                     58                     59                     60
                     A"                     A"                     A'
 Frequencies --    917.4371               921.9821               924.7115
 Red. masses --      2.5653                 1.5808                 6.5607
 Frc consts  --      1.2722                 0.7917                 3.3053
 IR Inten    --      6.8828                 4.5353                 4.7622

                     61                     62                     63
                     A"                     A"                     A"
 Frequencies --    928.4030               935.7277               938.0395
 Red. masses --      1.5972                 1.8980                 2.5513
 Frc consts  --      0.8111                 0.9791                 1.3227
 IR Inten    --      0.9796                 0.7437                 9.9313

                     64                     65                     66
                     A'                     A'                     A"
 Frequencies --    941.3766               964.0217               973.6039
 Red. masses --      5.5086                 6.2648                 1.3839
 Frc consts  --      2.8762                 3.4303                 0.7729
 IR Inten    --      1.9020                 3.2648                 2.8910

                     67                     68                     69
                     A"                     A'                     A"
 Frequencies --    989.5417               989.6691               992.2548
 Red. masses --      1.3070                 6.1366                 1.3030
 Frc consts  --      0.7541                 3.5413                 0.7559
 IR Inten    --      0.0251                 0.4753                 0.0949

                     70                     71                     72
                     A"                     A"                     A'
 Frequencies --    993.1489               995.5195              1040.7984
 Red. masses --      1.3063                 1.2869                 4.6795
 Frc consts  --      0.7591                 0.7514                 2.9866
 IR Inten    --      0.9602                 0.0553                 0.7935

                     73                     74                     75
                     A'                     A'                     A'
 Frequencies --   1074.6078              1078.0955              1107.0991
 Red. masses --      4.1571                 2.1371                 2.1957
 Frc consts  --      2.8284                 1.4635                 1.5856
 IR Inten    --      2.7124                 6.9354                 0.8479

                     76                     77                     78
                     A'                     A'                     A'
 Frequencies --   1119.3925              1124.4291              1147.3301
 Red. masses --      2.6285                 2.2628                 2.0389
 Frc consts  --      1.9406                 1.6856                 1.5813
 IR Inten    --      0.8145                 9.1137                 0.0128

                     79                     80                     81
                     A'                     A'                     A'
 Frequencies --   1176.4823              1179.3882              1183.6927
 Red. masses --      1.5281                 2.0215                 1.6297
 Frc consts  --      1.2461                 1.6567                 1.3453
 IR Inten    --      1.9371                 1.1057                 2.8736

                     82                     83                     84
                     A'                     A'                     A'
 Frequencies --   1188.9236              1206.2956              1211.2914
 Red. masses --      1.4654                 1.3922                 1.4104
 Frc consts  --      1.2204                 1.1936                 1.2193
 IR Inten    --      3.5361                 1.3044                 2.7977

                     85                     86                     87
                     A'                     A'                     A'
 Frequencies --   1229.2734              1246.6102              1251.8093
 Red. masses --      1.4276                 1.6371                 1.7634
 Frc consts  --      1.2710                 1.4990                 1.6281
 IR Inten    --      1.2990                 2.5672                 0.7816

                     88                     89                     90
                     A'                     A'                     A'
 Frequencies --   1273.2990              1280.8530              1309.2808
 Red. masses --      2.0527                 2.0842                 2.1781
 Frc consts  --      1.9608                 2.0146                 2.1998
 IR Inten    --      5.7733                 3.3302                 1.5874

                     91                     92                     93
                     A'                     A'                     A'
 Frequencies --   1318.5738              1339.9210              1346.7313
 Red. masses --      2.6342                 2.3887                 3.3188
 Frc consts  --      2.6985                 2.5268                 3.5465
 IR Inten    --      7.6012                 2.6805                 0.1851

                     94                     95                     96
                     A'                     A'                     A'
 Frequencies --   1356.0336              1366.2508              1372.0620
 Red. masses --      2.1567                 4.4312                 2.7584
 Frc consts  --      2.3366                 4.8734                 3.0595
 IR Inten    --      9.6832                21.3019                 0.0545

                     97                     98                     99
                     A'                     A'                     A'
 Frequencies --   1397.4039              1400.7073              1414.9520
 Red. masses --      2.2853                 4.3258                 3.8970
 Frc consts  --      2.6293                 5.0005                 4.5969
 IR Inten    --      4.2054                 8.7840                 0.7410

                    100                    101                    102
                     A'                     A'                     A'
 Frequencies --   1430.0074              1431.0347              1440.8250
 Red. masses --      3.4086                 3.7761                 5.8784
 Frc consts  --      4.1067                 4.5561                 7.1900
 IR Inten    --      0.3240                 0.0137                 4.9507

                    103                    104                    105
                     A'                     A'                     A'
 Frequencies --   1454.2864              1465.1856              1480.5625
 Red. masses --      6.2318                 4.5827                 2.2673
 Frc consts  --      7.7654                 5.7964                 2.9282
 IR Inten    --      1.2998                 0.9112                 2.0591

                    106                    107                    108
                     A'                     A'                     A'
 Frequencies --   1495.9871              1507.3664              1513.0126
 Red. masses --      3.0333                 2.8932                 4.1745
 Frc consts  --      3.9997                 3.8732                 5.6304
 IR Inten    --      0.0628                 1.4721                 1.7398

                    109                    110                    111
                     A'                     A'                     A'
 Frequencies --   1529.3848              1538.6242              1558.3996
 Red. masses --      4.0012                 3.5622                 3.6109
 Frc consts  --      5.5142                 4.9686                 5.1668
 IR Inten    --     12.9518                 4.6176                14.1937

                    112                    113                    114
                     A'                     A'                     A'
 Frequencies --   1597.6348              1625.0068              1637.7522
 Red. masses --      5.8692                 6.5452                 6.9842
 Frc consts  --      8.8264                10.1832                11.0374
 IR Inten    --      3.0300                 0.3176                 0.0681

                    115                    116                    117
                     A'                     A'                     A'
 Frequencies --   1645.2532              1652.6272              1661.0283
 Red. masses --      7.2534                 5.5244                 6.1530
 Frc consts  --     11.5680                 8.8897                10.0022
 IR Inten    --      5.6161                 0.9223                 1.6406

                    118                    119                    120
                     A'                     A'                     A'
 Frequencies --   1680.6704              1686.8952              1689.3514
 Red. masses --      6.0294                 5.8970                 5.8384
 Frc consts  --     10.0344                 9.8868                 9.8171
 IR Inten    --      0.3565                 9.3206                 0.3382

                    121                    122                    123
                     A'                     A'                     A'
 Frequencies --   1700.5404              1707.9531              3189.5406
 Red. masses --      6.8068                 7.8037                 1.0872
 Frc consts  --     11.5976                13.4123                 6.5165
 IR Inten    --     24.9275                 1.3804                 2.4531

                    124                    125                    126
                     A'                     A'                     A'
 Frequencies --   3189.6782              3193.9374              3194.5700
 Red. masses --      1.0905                 1.0866                 1.0867
 Frc consts  --      6.5368                 6.5308                 6.5341
 IR Inten    --      6.1387                 0.2105                 1.4720

                    127                    128                    129
                     A'                     A'                     A'
 Frequencies --   3195.0617              3201.6963              3208.2961
 Red. masses --      1.0868                 1.0892                 1.0915
 Frc consts  --      6.5369                 6.5782                 6.6193
 IR Inten    --      0.1851                 3.0347                24.5937

                    130                    131                    132
                     A'                     A'                     A'
 Frequencies --   3209.9181              3212.9327              3213.7154
 Red. masses --      1.0931                 1.0942                 1.0935
 Frc consts  --      6.6362                 6.6548                 6.6540
 IR Inten    --     40.1445                26.2467                 0.5362

                    133                    134                    135
                     A'                     A'                     A'
 Frequencies --   3214.9938              3220.0492              3224.7249
 Red. masses --      1.0946                 1.0950                 1.0958
 Frc consts  --      6.6661                 6.6896                 6.7139
 IR Inten    --      9.4644                14.7534                 2.3034

                    136                    137                    138
                     A'                     A'                     A'
 Frequencies --   3235.0834              3236.4129              3237.8901
 Red. masses --      1.0911                 1.0899                 1.0900
 Frc consts  --      6.7278                 6.7259                 6.7331
 IR Inten    --     15.9436                11.5846                18.0576

 - Thermochemistry -
 -------------------
 Temperature   298.150 Kelvin.  Pressure   1.00000 Atm.
 Atom     1 has atomic number  6 and mass  12.00000

 Molecular mass:   400.12520 amu.
 Principal axes and moments of inertia in atomic units:
                           1         2         3
     Eigenvalues --  7939.34109********************
           X            0.88313   0.46913   0.00000
           Y           -0.46913   0.88313   0.00000
           Z            0.00000   0.00000   1.00000
 This molecule is an asymmetric top.
 Rotational symmetry number  1.
 Warning -- assumption of classical behavior for rotation
           may cause significant error
 Rotational temperatures (Kelvin)      0.01091     0.00618     0.00394
 Rotational constants (GHZ):           0.22732     0.12870     0.08217
 Zero-point vibrational energy     989005.3 (Joules/Mol)
                                  236.37794 (Kcal/Mol)
 Warning -- explicit consideration of  35 degrees of freedom as
           vibrations may cause significant error
 Vibrational temperatures:     12.05    55.92    93.29   112.01   155.85
          (Kelvin)            213.99   241.99   247.56   309.23   383.70
                              386.99   401.40   419.17   432.90   450.47
                              479.34   491.70   503.24   549.71   597.58
                              622.78   668.99   671.59   722.17   728.20
                              749.20   776.09   799.05   803.78   810.94
                              827.95   835.26   868.94   877.76   891.63
                              927.89   937.60   957.94   965.87   978.88
                              979.61  1013.77  1085.55  1094.33  1101.58
                             1115.43  1127.01  1138.31  1140.39  1187.92
                             1216.44  1228.56  1230.87  1254.51  1269.45
                             1275.75  1302.69  1319.99  1326.52  1330.45
                             1335.76  1346.30  1349.63  1354.43  1387.01
                             1400.80  1423.73  1423.91  1427.63  1428.92
                             1432.33  1497.47  1546.12  1551.14  1592.87
                             1610.55  1617.80  1650.75  1692.69  1696.87
                             1703.07  1710.59  1735.59  1742.78  1768.65
                             1793.59  1801.07  1831.99  1842.86  1883.76
                             1897.13  1927.85  1937.64  1951.03  1965.73
                             1974.09  2010.55  2015.30  2035.80  2057.46
                             2058.94  2073.02  2092.39  2108.07  2130.20
                             2152.39  2168.76  2176.88  2200.44  2213.73
                             2242.19  2298.64  2338.02  2356.36  2367.15
                             2377.76  2389.85  2418.11  2427.06  2430.60
                             2446.70  2457.36  4589.03  4589.23  4595.36
                             4596.27  4596.98  4606.52  4616.02  4618.35
                             4622.69  4623.81  4625.65  4632.93  4639.65
                             4654.56  4656.47  4658.60

 Zero-point correction=                           0.376692 (Hartree/Particle)
 Thermal correction to Energy=                    0.396465
 Thermal correction to Enthalpy=                  0.397409
 Thermal correction to Gibbs Free Energy=         0.327976
 Sum of electronic and zero-point Energies=          -1228.741408
 Sum of electronic and thermal Energies=             -1228.721636
 Sum of electronic and thermal Enthalpies=           -1228.720692
 Sum of electronic and thermal Free Energies=        -1228.790125

                     E (Thermal)             CV                S
                      KCal/Mol        Cal/Mol-Kelvin    Cal/Mol-Kelvin
 Total                  248.785             86.789            146.134
 Electronic               0.000              0.000              0.000
 Translational            0.889              2.981             43.851
 Rotational               0.889              2.981             36.146
 Vibrational            247.008             80.827             66.137
 Vibration     1          0.593              1.987              8.364
 Vibration     2          0.594              1.981              5.316
 Vibration     3          0.597              1.971              4.304
 Vibration     4          0.599              1.964              3.944
 Vibration     5          0.606              1.943              3.299
 Vibration     6          0.618              1.904              2.688
 Vibration     7          0.625              1.882              2.456
 Vibration     8          0.626              1.877              2.413
 Vibration     9          0.645              1.818              2.001
 Vibration    10          0.672              1.734              1.618
 Vibration    11          0.673              1.730              1.603
 Vibration    12          0.679              1.712              1.540
 Vibration    13          0.687              1.690              1.466
 Vibration    14          0.693              1.672              1.412
 Vibration    15          0.701              1.649              1.346
 Vibration    16          0.715              1.609              1.245
 Vibration    17          0.721              1.592              1.204
 Vibration    18          0.727              1.576              1.167
 Vibration    19          0.752              1.508              1.031
 Vibration    20          0.779              1.437              0.908
 Vibration    21          0.794              1.399              0.849
 Vibration    22          0.822              1.328              0.752
 Vibration    23          0.824              1.324              0.747
 Vibration    24          0.857              1.246              0.653
 Vibration    25          0.861              1.236              0.643
 Vibration    26          0.876              1.204              0.608
 Vibration    27          0.894              1.163              0.567
 Vibration    28          0.911              1.128              0.533
 Vibration    29          0.914              1.121              0.527
 Vibration    30          0.919              1.110              0.517
 Vibration    31          0.932              1.084              0.494
 Vibration    32          0.937              1.073              0.484
 Vibration    33          0.962              1.023              0.443
 Vibration    34          0.969              1.011              0.433
 Vibration    35          0.980              0.990              0.417

 Optimization completed.
    -- Stationary point found.

 1\1\GINC-DS503-29\Freq\RwB97XD\def2TZVP\C32H16\MINENKY\29-Jul-2019\0\\
 #P Geom=AllCheck Guess=TCheck SCRF=Check GenChk RwB97XD/def2TZVP Freq\
 \The PBEPBE optimization and frequencies\\0,1\C,2.7207694429,1.7388436
 963,0.\C,2.1444617484,-1.0094658645,0.\C,1.8151530415,-2.3473492476,0.
 \C,-3.4061647713,2.4022052394,0.\C,-2.0902269199,2.8439419435,0.\C,0.5
 560759704,3.7066346477,0.\C,-0.4936215206,4.6460166791,0.\C,-1.7855278
 845,4.230938965,0.\C,-1.0285488485,1.8892709435,0.\C,-1.3253728121,0.5
 159207767,0.\C,-0.2449912775,-0.4618172691,0.\C,1.0903831372,-0.043974

 Normal termination of Gaussian 09 at Mon Jul 29 00:53:40 2019.
