 Gaussian 09, Revision D.01,
 Gaussian 09:  AM64L-G09RevD.01 24-Apr-2013

 ----------------------------------------------------------------------
 #P wB97XD/def2tzvp opt=(tight) freq integral(Grid=ultrafine) # SCF(Max
 Cycle=380) 5d 7f GFPrint
 ----------------------------------------------------------------------

 ---------------------------------------
 The PBEPBE optimization and frequencies
 ---------------------------------------
 Symbolic Z-matrix:
 Charge =  0 Multiplicity = 1

 SCF Done:  E(RwB97XD) =  -1229.13822611     A.U. after   15 cycles
 SCF Done:  E(RwB97XD) =  -1229.13952952     A.U. after   12 cycles
 SCF Done:  E(RwB97XD) =  -1229.13959113     A.U. after   10 cycles
 SCF Done:  E(RwB97XD) =  -1229.13959635     A.U. after    8 cycles
 SCF Done:  E(RwB97XD) =  -1229.13959652     A.U. after    7 cycles
 SCF Done:  E(RwB97XD) =  -1229.13959655     A.U. after    5 cycles
 SCF Done:  E(RwB97XD) =  -1229.13959656     A.U. after    5 cycles
 SCF Done:  E(RwB97XD) =  -1229.13959656     A.U. after    5 cycles
 SCF Done:  E(RwB97XD) =  -1229.13959656     A.U. after    4 cycles
 Optimization completed.
    -- Stationary point found.

 1\1\GINC-DS505-05\FOpt\RwB97XD\def2TZVP\C32H16\MINENKY\24-Jul-2019\0\\
 #P wB97XD/def2tzvp opt=(tight) freq integral(Grid=ultrafine) # SCF(Max
 Cycle=380) 5d 7f GFPrint\\The PBEPBE optimization and frequencies\\0,1
 \C,0.9936940278,-4.9624044059,-0.0063986688\C,-0.0751353151,-5.8492297
 594,-0.039056317\C,-1.3686521465,-5.3801833482,-0.062391441\C,-1.61893
 34092,-4.0057674873,-0.0542954342\C,-2.9563025416,-3.4947793027,-0.079
 4849675\C,-3.194607685,-2.1688509964,-0.0707017248\C,-2.1160783241,-1.
 2288142913,-0.0363175218\C,-2.357961245,0.1497553378,-0.0165244719\C,2

 Normal termination of Gaussian 09 at Wed Jul 24 11:41:39 2019.

 ---------------------------------------------------------------------
 #P Geom=AllCheck Guess=TCheck SCRF=Check GenChk RwB97XD/def2TZVP Freq
 ---------------------------------------------------------------------

 Structure from the checkpoint file:  "m1_00_120836-00-2-C32H16_B3LYP-D3.chk"
 ---------------------------------------
 The PBEPBE optimization and frequencies
 ---------------------------------------
 Charge =  0 Multiplicity = 1

                         Standard orientation:
 ---------------------------------------------------------------------
 Center     Atomic      Atomic             Coordinates (Angstroms)
 Number     Number       Type             X           Y           Z
 ---------------------------------------------------------------------
      1          6           0       -5.037737    0.482715    0.008107
      2          6           0       -5.811029   -0.670904    0.041344
      3          6           0       -5.212614   -1.909886    0.064965
      4          6           0       -3.819851   -2.018820    0.056579
      5          6           0       -3.175244   -3.297152    0.082057
      6          6           0       -1.831937   -3.399112    0.072992
      7          6           0       -1.006699   -2.230422    0.038011
      8          6           0        0.389337   -2.330582    0.017924
      9          6           0        0.837355    2.462960   -0.035933
     10          6           0       -0.574180    2.623296   -0.060123
     11          6           0       -1.155030    3.896449   -0.103405
     12          6           0       -2.522462    4.030225   -0.114829
     13          6           0       -3.338888    2.905153   -0.081795
     14          6           0       -0.782294    0.190387   -0.004059
     15          6           0       -1.398801    1.478921   -0.030982
     16          6           0       -2.807971    1.623618   -0.038447
     17          6           0       -3.650704    0.424954   -0.002500
     18          6           0       -3.029011   -0.845475    0.023176
     19          6           0       -1.604985   -0.963610    0.016861
     20          6           0        0.620703    0.063510   -0.002728
     21          6           0        1.210696   -1.228133   -0.015891
     22          6           0        1.441933    1.246725    0.009454
     23          6           0        2.679863   -1.361591   -0.067753
     24          6           0        3.298531   -2.586197   -0.176617
     25          6           0        4.694861   -2.712295   -0.192215
     26          6           0        5.485260   -1.606656   -0.093359
     27          6           0        3.489482   -0.192203    0.002891
     28          6           0        4.903562   -0.323908    0.006681
     29          6           0        5.711145    0.828701    0.110921
     30          6           0        5.138071    2.061904    0.209356
     31          6           0        3.743502    2.195694    0.188111
     32          6           0        2.909899    1.105996    0.071123
     33          1           0       -5.544258    1.437171   -0.007977
     34          1           0       -6.890450   -0.589049    0.049032
     35          1           0       -5.813683   -2.810888    0.090928
     36          1           0       -3.795807   -4.184916    0.108170
     37          1           0       -1.352000   -4.370440    0.091091
     38          1           0        0.809818   -3.326562    0.033798
     39          1           0        1.425512    3.370232   -0.055248
     40          1           0       -0.514890    4.770155   -0.126455
     41          1           0       -2.972367    5.014271   -0.149018
     42          1           0       -4.409504    3.050874   -0.092525
     43          1           0        2.711546   -3.489769   -0.255751
     44          1           0        5.137448   -3.696455   -0.278467
     45          1           0        6.565047   -1.693291   -0.093895
     46          1           0        6.788372    0.714640    0.116564
     47          1           0        5.754698    2.946986    0.300471
     48          1           0        3.331941    3.191456    0.269782
 ---------------------------------------------------------------------

 SCF Done:  E(RwB97XD) =  -1229.13959656     A.U. after    1 cycles

 The electronic state is 1-A.
 Alpha  occ. eigenvalues --  -10.30602 -10.30591 -10.30576 -10.30557 -10.30551
 Alpha  occ. eigenvalues --  -10.30518 -10.30481 -10.30397 -10.30305 -10.30261
 Alpha  occ. eigenvalues --  -10.30193 -10.30142 -10.30122 -10.30094 -10.30067
 Alpha  occ. eigenvalues --  -10.30058 -10.29304 -10.29221 -10.29167 -10.29160
 Alpha  occ. eigenvalues --  -10.29128 -10.29114 -10.29110 -10.29085 -10.29083
 Alpha  occ. eigenvalues --  -10.29076 -10.29069 -10.29064 -10.29060 -10.29052
 Alpha  occ. eigenvalues --  -10.29024 -10.29008  -1.01586  -0.99595  -0.97857
 Alpha  occ. eigenvalues --   -0.96718  -0.94239  -0.93190  -0.91882  -0.90817
 Alpha  occ. eigenvalues --   -0.88560  -0.86394  -0.85518  -0.85152  -0.84637
 Alpha  occ. eigenvalues --   -0.83776  -0.81461  -0.79774  -0.75077  -0.74502
 Alpha  occ. eigenvalues --   -0.73817  -0.73137  -0.72712  -0.70369  -0.70157
 Alpha  occ. eigenvalues --   -0.68013  -0.65091  -0.64518  -0.64042  -0.61884
 Alpha  occ. eigenvalues --   -0.61545  -0.60356  -0.59892  -0.58947  -0.57971
 Alpha  occ. eigenvalues --   -0.56659  -0.55283  -0.54590  -0.54083  -0.54026
 Alpha  occ. eigenvalues --   -0.53160  -0.52798  -0.51940  -0.51061  -0.50906
 Alpha  occ. eigenvalues --   -0.50645  -0.50400  -0.49943  -0.49699  -0.49142
 Alpha  occ. eigenvalues --   -0.48177  -0.46825  -0.46712  -0.46399  -0.45982
 Alpha  occ. eigenvalues --   -0.45793  -0.44892  -0.44508  -0.43866  -0.42452
 Alpha  occ. eigenvalues --   -0.42383  -0.41826  -0.41128  -0.39756  -0.39600
 Alpha  occ. eigenvalues --   -0.39492  -0.36774  -0.34467  -0.33567  -0.32943
 Alpha  occ. eigenvalues --   -0.32613  -0.31348  -0.27494  -0.25131
 Alpha virt. eigenvalues --   -0.02679  -0.00427   0.02868   0.03789   0.04580
 Alpha virt. eigenvalues --    0.05219   0.06270   0.08988   0.11784   0.12218
 Alpha virt. eigenvalues --    0.12427   0.12570   0.13473   0.13690   0.13837

 Mulliken charges:
               1
     1  C   -0.191826
     2  C   -0.089554
     3  C   -0.182621
     4  C    0.160439
     5  C   -0.174623
     6  C   -0.224659
     7  C    0.208505
     8  C   -0.339181
     9  C   -0.317712
    10  C    0.194093
    11  C   -0.225391
    12  C   -0.086157
    13  C   -0.187224
    14  C    0.097259
    15  C   -0.060832
    16  C    0.104423
    17  C    0.079656
    18  C   -0.070478
    19  C    0.006779
    20  C   -0.017047
    21  C    0.218291
    22  C    0.176546
    23  C    0.063701
    24  C   -0.160496
    25  C   -0.086352
    26  C   -0.196556
    27  C   -0.167300
    28  C    0.185961
    29  C   -0.198346
    30  C   -0.083476
    31  C   -0.160554
    32  C    0.061860
    33  H    0.101734
    34  H    0.112762
    35  H    0.107702
    36  H    0.104623
    37  H    0.103864
    38  H    0.087106
    39  H    0.086880
    40  H    0.106721
    41  H    0.111538
    42  H    0.099977
    43  H    0.100538
    44  H    0.112173
    45  H    0.107361
    46  H    0.107522
    47  H    0.112455
    48  H    0.099918
 Sum of Mulliken charges =   0.00000

 Dipole moment (field-independent basis, Debye):
    X=             -0.0221    Y=             -0.0023    Z=              0.0041  Tot=              0.0226
 Quadrupole moment (field-independent basis, Debye-Ang):
   XX=           -154.4602   YY=           -155.1309   ZZ=           -191.7407
   XY=              0.0254   XZ=              0.0764   YZ=              0.4187

  Exact polarizability: 621.702 -12.282 455.534   0.487   1.555 155.667
 Approx polarizability: 630.716 -18.708 571.405   0.637   2.448 222.918

                      1                      2                      3
                      A                      A                      A
 Frequencies --     16.1584                38.6205                74.2433
 Red. masses --      5.0964                 5.3788                 5.0345
 Frc consts  --      0.0008                 0.0047                 0.0164
 IR Inten    --      0.0013                 0.1757                 0.9034

                      4                      5                      6
                      A                      A                      A
 Frequencies --    100.6826               130.9716               149.0110
 Red. masses --      4.7436                 4.2331                 4.7483
 Frc consts  --      0.0283                 0.0428                 0.0621
 IR Inten    --      0.4149                 1.3826                 0.6501

                      7                      8                      9
                      A                      A                      A
 Frequencies --    168.1859               185.7855               210.1709
 Red. masses --      5.4674                 4.2643                 4.2244
 Frc consts  --      0.0911                 0.0867                 0.1099
 IR Inten    --      0.3895                 2.4101                 0.0178

                     10                     11                     12
                      A                      A                      A
 Frequencies --    234.9077               263.0045               272.2398
 Red. masses --      3.8020                 6.6142                 3.9236
 Frc consts  --      0.1236                 0.2696                 0.1713
 IR Inten    --      0.0809                 0.2954                 0.9728

                     13                     14                     15
                      A                      A                      A
 Frequencies --    295.2536               301.7091               310.2792
 Red. masses --      4.8091                 5.8279                 5.9125
 Frc consts  --      0.2470                 0.3126                 0.3354
 IR Inten    --      1.4895                 0.1789                 0.0259

                     16                     17                     18
                      A                      A                      A
 Frequencies --    329.3242               360.9925               406.1669
 Red. masses --      4.9213                 5.2373                 7.1460
 Frc consts  --      0.3145                 0.4021                 0.6946
 IR Inten    --      0.6158                 1.5488                 0.2248

                     19                     20                     21
                      A                      A                      A
 Frequencies --    417.5200               452.0111               458.9733
 Red. masses --      7.1443                 4.5856                 5.2008
 Frc consts  --      0.7338                 0.5520                 0.6455
 IR Inten    --      0.0366                 0.1291                 0.5341

                     22                     23                     24
                      A                      A                      A
 Frequencies --    464.9207               477.5839               484.1799
 Red. masses --      4.2015                 3.2578                 4.8509
 Frc consts  --      0.5351                 0.4378                 0.6700
 IR Inten    --      0.3720                 0.0755                 2.1969

                     25                     26                     27
                      A                      A                      A
 Frequencies --    501.1134               531.1586               533.9612
 Red. masses --      7.2402                 3.6674                 5.8525
 Frc consts  --      1.0712                 0.6096                 0.9831
 IR Inten    --      0.1835                 0.6017                 1.1546

                     28                     29                     30
                      A                      A                      A
 Frequencies --    540.7905               547.2632               557.5045
 Red. masses --      6.9286                 3.4856                 6.2673
 Frc consts  --      1.1939                 0.6151                 1.1477
 IR Inten    --      0.9730                 3.3059                 1.1964

                     31                     32                     33
                      A                      A                      A
 Frequencies --    566.5777               575.2444               595.4878
 Red. masses --      3.9185                 6.1248                 4.2181
 Frc consts  --      0.7411                 1.1941                 0.8813
 IR Inten    --      6.1634                 3.5178                 0.3538

                     34                     35                     36
                      A                      A                      A
 Frequencies --    604.5353               615.8910               643.3027
 Red. masses --      7.1460                 3.9411                 8.1199
 Frc consts  --      1.5387                 0.8808                 1.9798
 IR Inten    --      5.3782                 1.1622                 1.1018

                     37                     38                     39
                      A                      A                      A
 Frequencies --    652.0237               677.6306               678.1943
 Red. masses --      3.7766                 5.0221                 2.8266
 Frc consts  --      0.9460                 1.3587                 0.7660
 IR Inten    --      8.0677                 0.5944                 0.1692

                     40                     41                     42
                      A                      A                      A
 Frequencies --    679.6520               693.0880               727.1722
 Red. masses --      3.9625                 7.1880                 4.7590
 Frc consts  --      1.0784                 2.0344                 1.4827
 IR Inten    --      0.3860                 2.7803                 0.2213

                     43                     44                     45
                      A                      A                      A
 Frequencies --    729.2047               773.9716               775.5523
 Red. masses --      2.9926                 5.3823                 1.9925
 Frc consts  --      0.9376                 1.8996                 0.7061
 IR Inten    --      1.7538                 2.1482                 2.5019

                     46                     47                     48
                      A                      A                      A
 Frequencies --    785.4919               791.9034               799.3886
 Red. masses --      1.2943                 1.3435                 1.5173
 Frc consts  --      0.4705                 0.4964                 0.5713
 IR Inten    --     12.3076                26.1179                93.9968

                     49                     50                     51
                      A                      A                      A
 Frequencies --    809.6842               823.3545               826.3994
 Red. masses --      5.9212                 5.4841                 2.1182
 Frc consts  --      2.2871                 2.1904                 0.8523
 IR Inten    --      9.0546                 0.1548                 5.1486

                     52                     53                     54
                      A                      A                      A
 Frequencies --    835.7946               846.4730               860.4003
 Red. masses --      2.9449                 6.5719                 2.8319
 Frc consts  --      1.2120                 2.7744                 1.2352
 IR Inten    --      2.0407                 2.0084                13.0418

                     55                     56                     57
                      A                      A                      A
 Frequencies --    887.2963               888.3723               901.2795
 Red. masses --      5.7875                 3.2474                 2.4145
 Frc consts  --      2.6846                 1.5100                 1.1556
 IR Inten    --      6.2103                39.2718                10.5001

                     58                     59                     60
                      A                      A                      A
 Frequencies --    915.6893               921.5112               923.6045
 Red. masses --      2.2273                 1.7631                 3.6110
 Frc consts  --      1.1003                 0.8821                 1.8149
 IR Inten    --      2.0873                 1.2135                 3.1779

                     61                     62                     63
                      A                      A                      A
 Frequencies --    928.8668               931.8661               940.9080
 Red. masses --      1.6301                 1.8294                 1.5843
 Frc consts  --      0.8287                 0.9360                 0.8264
 IR Inten    --      0.3432                 4.2557                 0.0274

                     64                     65                     66
                      A                      A                      A
 Frequencies --    943.5361               974.2391               985.1810
 Red. masses --      1.9091                 5.5050                 1.3150
 Frc consts  --      1.0014                 3.0785                 0.7520
 IR Inten    --     13.0225                 2.4532                 0.0029

                     67                     68                     69
                      A                      A                      A
 Frequencies --    989.1664               991.1878               996.3757
 Red. masses --      1.3052                 1.3021                 1.3106
 Frc consts  --      0.7524                 0.7537                 0.7666
 IR Inten    --      0.0073                 0.5111                 0.9640

                     70                     71                     72
                      A                      A                      A
 Frequencies --    997.7289              1030.0085              1035.4007
 Red. masses --      1.3192                 5.4789                 4.2863
 Frc consts  --      0.7737                 3.4247                 2.7074
 IR Inten    --      0.0029                 1.1069                 0.2000

                     73                     74                     75
                      A                      A                      A
 Frequencies --   1076.2037              1106.7280              1129.9906
 Red. masses --      4.6354                 2.7409                 2.1939
 Frc consts  --      3.1632                 1.9780                 1.6505
 IR Inten    --      5.4793                 4.5667                 3.0374

                     76                     77                     78
                      A                      A                      A
 Frequencies --   1133.6378              1134.7861              1148.9007
 Red. masses --      1.8671                 2.3509                 2.1996
 Frc consts  --      1.4137                 1.7837                 1.7107
 IR Inten    --      6.0554                 6.1865                 0.0523

                     79                     80                     81
                      A                      A                      A
 Frequencies --   1175.3184              1181.4229              1186.5688
 Red. masses --      1.4453                 1.5687                 1.3625
 Frc consts  --      1.1763                 1.2901                 1.1303
 IR Inten    --      4.4876                 0.4421                 1.3184

                     82                     83                     84
                      A                      A                      A
 Frequencies --   1215.2706              1219.0343              1222.6051
 Red. masses --      1.3440                 1.9500                 1.4664
 Frc consts  --      1.1695                 1.7074                 1.2914
 IR Inten    --      1.0981                 1.0031                 2.0186

                     85                     86                     87
                      A                      A                      A
 Frequencies --   1230.5285              1239.1412              1248.1238
 Red. masses --      1.5486                 1.9630                 2.0155
 Frc consts  --      1.3816                 1.7758                 1.8499
 IR Inten    --      2.2931                 0.5645                 0.1238

                     88                     89                     90
                      A                      A                      A
 Frequencies --   1254.1176              1271.6275              1298.7314
 Red. masses --      1.9575                 1.8883                 2.0550
 Frc consts  --      1.8140                 1.7990                 2.0422
 IR Inten    --      1.5015                 0.6025                 4.0826

                     91                     92                     93
                      A                      A                      A
 Frequencies --   1314.9973              1331.4126              1343.4291
 Red. masses --      2.2213                 2.6764                 2.6602
 Frc consts  --      2.2631                 2.7953                 2.8287
 IR Inten    --      3.8912                 1.2181                 7.4433

                     94                     95                     96
                      A                      A                      A
 Frequencies --   1355.2569              1366.7839              1379.5815
 Red. masses --      3.4519                 2.7475                 3.5072
 Frc consts  --      3.7356                 3.0240                 3.9329
 IR Inten    --      5.2825                 7.6487                 0.8099

                     97                     98                     99
                      A                      A                      A
 Frequencies --   1386.6691              1407.8834              1416.3596
 Red. masses --      4.5027                 3.7136                 5.9778
 Frc consts  --      5.1012                 4.3369                 7.0654
 IR Inten    --      2.0635                 4.8451                 6.9498

                    100                    101                    102
                      A                      A                      A
 Frequencies --   1424.8178              1438.8119              1444.0077
 Red. masses --      5.4496                 3.6669                 2.9828
 Frc consts  --      6.5183                 4.4726                 3.6645
 IR Inten    --      1.7550                26.5275                 8.1066

                    103                    104                    105
                      A                      A                      A
 Frequencies --   1450.6332              1469.3837              1483.2049
 Red. masses --      3.8815                 3.5793                 2.6093
 Frc consts  --      4.8125                 4.5533                 3.3820
 IR Inten    --     11.3606                 3.3381                 0.8685

                    106                    107                    108
                      A                      A                      A
 Frequencies --   1488.6523              1509.3913              1524.7250
 Red. masses --      2.4799                 3.7920                 2.9527
 Frc consts  --      3.2380                 5.0900                 4.0444
 IR Inten    --     12.8384                 5.5467                 0.1345

                    109                    110                    111
                      A                      A                      A
 Frequencies --   1541.5654              1553.6291              1567.5844
 Red. masses --      3.4736                 4.6355                 5.1020
 Frc consts  --      4.8636                 6.5924                 7.3868
 IR Inten    --      1.3807                 3.0980                 0.6980

                    112                    113                    114
                      A                      A                      A
 Frequencies --   1581.2472              1588.6736              1654.5315
 Red. masses --      4.6210                 5.5385                 7.9520
 Frc consts  --      6.8075                 8.2359                12.8255
 IR Inten    --      3.8301                 1.4466                 4.4146

                    115                    116                    117
                      A                      A                      A
 Frequencies --   1657.5064              1661.0154              1670.1349
 Red. masses --      5.7137                 5.4819                 5.1104
 Frc consts  --      9.2486                 8.9110                 8.3986
 IR Inten    --     13.0761                 2.3591                 2.9861

                    118                    119                    120
                      A                      A                      A
 Frequencies --   1671.7681              1683.5376              1695.8238
 Red. masses --      6.5629                 7.3732                 6.7098
 Frc consts  --     10.8069                12.3127                11.3689
 IR Inten    --      0.8846                12.7756                19.9652

                    121                    122                    123
                      A                      A                      A
 Frequencies --   1700.0670              1711.4477              3187.4292
 Red. masses --      6.7970                 7.8017                 1.0865
 Frc consts  --     11.5744                13.4637                 6.5035
 IR Inten    --      7.5939                 4.3783                 0.9412

                    124                    125                    126
                      A                      A                      A
 Frequencies --   3192.5724              3192.9598              3193.1097
 Red. masses --      1.0871                 1.0870                 1.0875
 Frc consts  --      6.5286                 6.5294                 6.5327
 IR Inten    --      1.4681                 1.8026                 1.0797

                    127                    128                    129
                      A                      A                      A
 Frequencies --   3194.5167              3206.7053              3208.3343
 Red. masses --      1.0867                 1.0970                 1.0924
 Frc consts  --      6.5339                 6.6461                 6.6251
 IR Inten    --      0.2640                11.6626                21.6425

                    130                    131                    132
                      A                      A                      A
 Frequencies --   3209.0321              3210.1455              3211.5832
 Red. masses --      1.0926                 1.0925                 1.0938
 Frc consts  --      6.6292                 6.6330                 6.6473
 IR Inten    --     34.6434                47.6241                 5.5786

                    133                    134                    135
                      A                      A                      A
 Frequencies --   3216.6000              3217.2611              3224.4157
 Red. masses --      1.0935                 1.0936                 1.0959
 Frc consts  --      6.6659                 6.6691                 6.7132
 IR Inten    --      2.2581                 2.8496                 3.4033

                    136                    137                    138
                      A                      A                      A
 Frequencies --   3234.9258              3237.7740              3238.1704
 Red. masses --      1.0897                 1.0907                 1.0897
 Frc consts  --      6.7188                 6.7369                 6.7323
 IR Inten    --     12.1432                19.7608                10.1019

 - Thermochemistry -
 -------------------
 Temperature   298.150 Kelvin.  Pressure   1.00000 Atm.
 Atom     1 has atomic number  6 and mass  12.00000

 Molecular mass:   400.12520 amu.
 Principal axes and moments of inertia in atomic units:
                           1         2         3
     Eigenvalues --  6357.12453********************
           X            1.00000  -0.00055   0.00004
           Y            0.00055   1.00000   0.00047
           Z           -0.00004  -0.00047   1.00000
 This molecule is an asymmetric top.
 Rotational symmetry number  1.
 Warning -- assumption of classical behavior for rotation
           may cause significant error
 Rotational temperatures (Kelvin)      0.01362     0.00518     0.00376
 Rotational constants (GHZ):           0.28389     0.10786     0.07824
 Zero-point vibrational energy     991023.1 (Joules/Mol)
                                  236.86021 (Kcal/Mol)
 Warning -- explicit consideration of  35 degrees of freedom as
           vibrations may cause significant error
 Vibrational temperatures:     23.25    55.57   106.82   144.86   188.44
          (Kelvin)            214.39   241.98   267.30   302.39   337.98
                              378.40   391.69   424.80   434.09   446.42
                              473.82   519.39   584.38   600.72   650.34
                              660.36   668.92   687.14   696.63   720.99
                              764.22   768.25   778.08   787.39   802.12
                              815.18   827.65   856.77   869.79   886.13
                              925.57   938.12   974.96   975.77   977.87
                              997.20  1046.24  1049.16  1113.57  1115.85
                             1130.15  1139.37  1150.14  1164.95  1184.62
                             1189.00  1202.52  1217.88  1237.92  1276.62
                             1278.17  1296.74  1317.47  1325.85  1328.86
                             1336.43  1340.75  1353.76  1357.54  1401.71
                             1417.45  1423.19  1426.10  1433.56  1435.51
                             1481.95  1489.71  1548.42  1592.33  1625.80
                             1631.05  1632.70  1653.01  1691.02  1699.80
                             1707.21  1748.50  1753.92  1759.05  1770.45
                             1782.85  1795.77  1804.39  1829.59  1868.58
                             1891.99  1915.60  1932.89  1949.91  1966.49
                             1984.91  1995.11  2025.63  2037.82  2049.99
                             2070.13  2077.60  2087.13  2114.11  2134.00
                             2141.84  2171.67  2193.74  2217.97  2235.32
                             2255.40  2275.06  2285.74  2380.50  2384.78
                             2389.83  2402.95  2405.30  2422.23  2439.91
                             2446.01  2462.39  4585.99  4593.39  4593.95
                             4594.17  4596.19  4613.73  4616.07  4617.08
                             4618.68  4620.75  4627.96  4628.92  4639.21
                             4654.33  4658.43  4659.00

 Zero-point correction=                           0.377461 (Hartree/Particle)
 Thermal correction to Energy=                    0.396997
 Thermal correction to Enthalpy=                  0.397941
 Thermal correction to Gibbs Free Energy=         0.329851
 Sum of electronic and zero-point Energies=          -1228.762136
 Sum of electronic and thermal Energies=             -1228.742599
 Sum of electronic and thermal Enthalpies=           -1228.741655
 Sum of electronic and thermal Free Energies=        -1228.809746

                     E (Thermal)             CV                S
                      KCal/Mol        Cal/Mol-Kelvin    Cal/Mol-Kelvin
 Total                  249.120             86.374            143.308
 Electronic               0.000              0.000              0.000
 Translational            0.889              2.981             43.851
 Rotational               0.889              2.981             36.149
 Vibrational            247.342             80.412             63.308
 Vibration     1          0.593              1.986              7.058
 Vibration     2          0.594              1.981              5.329
 Vibration     3          0.599              1.966              4.038
 Vibration     4          0.604              1.949              3.441
 Vibration     5          0.612              1.922              2.932
 Vibration     6          0.618              1.904              2.685
 Vibration     7          0.625              1.882              2.456
 Vibration     8          0.632              1.859              2.269
 Vibration     9          0.642              1.825              2.042
 Vibration    10          0.655              1.787              1.841
 Vibration    11          0.670              1.741              1.642
 Vibration    12          0.675              1.724              1.582
 Vibration    13          0.689              1.683              1.444
 Vibration    14          0.694              1.670              1.407
 Vibration    15          0.699              1.654              1.361
 Vibration    16          0.712              1.617              1.263
 Vibration    17          0.735              1.553              1.118
 Vibration    18          0.771              1.457              0.940
 Vibration    19          0.781              1.432              0.900
 Vibration    20          0.811              1.356              0.790
 Vibration    21          0.817              1.341              0.769
 Vibration    22          0.822              1.328              0.752
 Vibration    23          0.834              1.300              0.717
 Vibration    24          0.840              1.285              0.699
 Vibration    25          0.856              1.248              0.655
 Vibration    26          0.886              1.181              0.585
 Vibration    27          0.889              1.175              0.578
 Vibration    28          0.896              1.160              0.564
 Vibration    29          0.902              1.146              0.550
 Vibration    30          0.913              1.123              0.529
 Vibration    31          0.922              1.104              0.511
 Vibration    32          0.932              1.085              0.494
 Vibration    33          0.953              1.041              0.457
 Vibration    34          0.963              1.022              0.442
 Vibration    35          0.975              0.998              0.423

 1\1\GINC-DS505-05\Freq\RwB97XD\def2TZVP\C32H16\MINENKY\25-Jul-2019\0\\
 #P Geom=AllCheck Guess=TCheck SCRF=Check GenChk RwB97XD/def2TZVP Freq\
 \The PBEPBE optimization and frequencies\\0,1\C,0.9936940278,-4.962404
 4059,-0.0063986688\C,-0.0751353151,-5.8492297594,-0.039056317\C,-1.368
 6521465,-5.3801833482,-0.062391441\C,-1.6189334092,-4.0057674873,-0.05
 42954342\C,-2.9563025416,-3.4947793027,-0.0794849675\C,-3.194607685,-2
 .1688509964,-0.0707017248\C,-2.1160783241,-1.2288142913,-0.0363175218\
 C,-2.357961245,0.1497553378,-0.0165244719\C,2.3649967777,1.0838991315,

 Normal termination of Gaussian 09 at Thu Jul 25 21:26:38 2019.
