 Gaussian 09, Revision D.01,
 Gaussian 09:  AM64L-G09RevD.01 24-Apr-2013

 ----------------------------------------------------------------------
 #P wB97XD/def2tzvp opt=(tight) freq integral(Grid=ultrafine) # SCF(Max
 Cycle=380) 5d 7f GFPrint
 ----------------------------------------------------------------------

 ---------------------------------------
 The PBEPBE optimization and frequencies
 ---------------------------------------
 Symbolic Z-matrix:
 Charge =  0 Multiplicity = 1

 SCF Done:  E(RwB97XD) =  -539.518860986     A.U. after   14 cycles
 SCF Done:  E(RwB97XD) =  -539.519136400     A.U. after   10 cycles
 SCF Done:  E(RwB97XD) =  -539.519152584     A.U. after    8 cycles
 SCF Done:  E(RwB97XD) =  -539.519154269     A.U. after    8 cycles
 SCF Done:  E(RwB97XD) =  -539.519154298     A.U. after    5 cycles
 SCF Done:  E(RwB97XD) =  -539.519154300     A.U. after    3 cycles
 Optimization completed.
    -- Stationary point found.
 Normal termination of Gaussian 09 at Fri Jul  9 19:52:31 2021.

 ---------------------------------------------------------------------
 #P Geom=AllCheck Guess=TCheck SCRF=Check GenChk RwB97XD/def2TZVP Freq
 ---------------------------------------------------------------------

 Structure from the checkpoint file:  "m1_00_120-12-7-C14H10_wB97XD.chk"
 ---------------------------------------
 The PBEPBE optimization and frequencies
 ---------------------------------------
 Charge =  0 Multiplicity = 1

                         Standard orientation:
 ---------------------------------------------------------------------
 Center     Atomic      Atomic             Coordinates (Angstroms)
 Number     Number       Type             X           Y           Z
 ---------------------------------------------------------------------
      1          6           0        0.000000   -0.714858    1.214232
      2          6           0        0.000000    0.714858    1.214232
      3          6           0        0.000000   -1.393476    0.000000
      4          6           0        0.000000   -1.398529    2.466267
      5          6           0        0.000000    1.393476    0.000000
      6          6           0        0.000000    1.398529    2.466267
      7          6           0        0.000000   -0.714858   -1.214232
      8          6           0        0.000000   -0.710997    3.635694
      9          6           0        0.000000    0.714858   -1.214232
     10          6           0        0.000000    0.710997    3.635694
     11          6           0        0.000000   -1.398530   -2.466267
     12          6           0        0.000000    1.398530   -2.466267
     13          6           0        0.000000   -0.710997   -3.635694
     14          6           0        0.000000    0.710997   -3.635694
     15          1           0        0.000000   -2.478208    0.000000
     16          1           0        0.000000   -2.482218    2.463999
     17          1           0        0.000000    2.478208    0.000000
     18          1           0        0.000000    2.482218    2.463999
     19          1           0        0.000000   -1.242074    4.579139
     20          1           0        0.000000    1.242074    4.579139
     21          1           0        0.000000   -2.482219   -2.463999
     22          1           0        0.000000    2.482219   -2.463999
     23          1           0        0.000000   -1.242074   -4.579139
     24          1           0        0.000000    1.242074   -4.579139
 ---------------------------------------------------------------------

 SCF Done:  E(RwB97XD) =  -539.519154300     A.U. after    1 cycles

 The electronic state is 1-A1.
 Alpha  occ. eigenvalues --  -10.29952 -10.29951 -10.29912 -10.29908 -10.29063
 Alpha  occ. eigenvalues --  -10.29060 -10.29052 -10.29050 -10.29045 -10.29045
 Alpha  occ. eigenvalues --  -10.28969 -10.28969 -10.28932 -10.28932  -0.99122
 Alpha  occ. eigenvalues --   -0.95840  -0.90817  -0.88919  -0.85580  -0.84216
 Alpha  occ. eigenvalues --   -0.80608  -0.74371  -0.71493  -0.69995  -0.68824
 Alpha  occ. eigenvalues --   -0.63327  -0.61856  -0.59985  -0.55496  -0.55468
 Alpha  occ. eigenvalues --   -0.54160  -0.53781  -0.51345  -0.50218  -0.49998
 Alpha  occ. eigenvalues --   -0.49517  -0.47536  -0.46441  -0.45855  -0.43029
 Alpha  occ. eigenvalues --   -0.41876  -0.40900  -0.39430  -0.38805  -0.34122
 Alpha  occ. eigenvalues --   -0.31628  -0.26883
 Alpha virt. eigenvalues --   -0.00812   0.04051   0.06606   0.09382   0.12886
 Alpha virt. eigenvalues --    0.13039   0.13173   0.13281   0.15630   0.15892
 Alpha virt. eigenvalues --    0.17703   0.17853   0.18772   0.19404   0.20339

 Mulliken charges:
               1
     1  C    0.171164
     2  C    0.171164
     3  C   -0.265089
     4  C   -0.221458
     5  C   -0.265089
     6  C   -0.221458
     7  C    0.171164
     8  C   -0.097741
     9  C    0.171164
    10  C   -0.097741
    11  C   -0.221458
    12  C   -0.221458
    13  C   -0.097741
    14  C   -0.097741
    15  H    0.104514
    16  H    0.109760
    17  H    0.104514
    18  H    0.109760
    19  H    0.118562
    20  H    0.118562
    21  H    0.109760
    22  H    0.109760
    23  H    0.118562
    24  H    0.118562
 Sum of Mulliken charges =   0.00000

 Dipole moment (field-independent basis, Debye):
    X=              0.0000    Y=              0.0000    Z=              0.0000  Tot=              0.0000
 Quadrupole moment (field-independent basis, Debye-Ang):
   XX=            -87.6768   YY=            -70.7798   ZZ=            -70.2434
   XY=              0.0000   XZ=              0.0000   YZ=              0.0000

  Exact polarizability:  78.267   0.000 159.375   0.000   0.000 274.294
 Approx polarizability: 102.909   0.000 204.695   0.000   0.000 285.304

                      1                      2                      3
                     B1                     A2                     B1
 Frequencies --     90.6315               123.1409               235.4539
 Red. masses --      4.9290                 3.6477                 4.8176
 Frc consts  --      0.0239                 0.0326                 0.1574
 IR Inten    --      1.3942                 0.0000                 0.0000

                      4                      5                      6
                     B2                     A2                     B1
 Frequencies --    238.5881               272.6680               391.2924
 Red. masses --      4.4529                 3.6389                 3.2699
 Frc consts  --      0.1493                 0.1594                 0.2950
 IR Inten    --      1.4281                 0.0000                 0.0655

                      7                      8                      9
                     B2                     A1                     B1
 Frequencies --    401.8926               402.2856               487.2583
 Red. masses --      4.6242                 6.7107                 2.3892
 Frc consts  --      0.4401                 0.6399                 0.3342
 IR Inten    --      0.0000                 0.0000                28.1379

                     10                     11                     12
                     B1                     A2                     B2
 Frequencies --    492.8270               512.3553               541.2060
 Red. masses --      2.7306                 3.4838                 6.2577
 Frc consts  --      0.3907                 0.5388                 1.0799
 IR Inten    --      0.0000                 0.0000                 0.0000

                     13                     14                     15
                     A2                     A1                     A1
 Frequencies --    600.2099               621.1153               646.0568
 Red. masses --      3.3391                 6.8026                 6.6592
 Frc consts  --      0.7087                 1.5462                 1.6376
 IR Inten    --      0.0000                 8.7520                 0.0000

                     16                     17                     18
                     B2                     B1                     A2
 Frequencies --    667.4874               751.0518               776.0125
 Red. masses --      6.0544                 1.1980                 3.5152
 Frc consts  --      1.5893                 0.3982                 1.2472
 IR Inten    --      0.9328                87.2582                 0.0000

                     19                     20                     21
                     A1                     B1                     A2
 Frequencies --    779.2823               782.3349               801.7018
 Red. masses --      5.5822                 1.3582                 2.4427
 Frc consts  --      1.9973                 0.4898                 0.9250
 IR Inten    --      0.0000                 0.0000                 0.0000

                     22                     23                     24
                     A1                     A2                     A2
 Frequencies --    834.0723               859.1703               882.8815
 Red. masses --      3.7821                 1.2757                 1.6344
 Frc consts  --      1.5502                 0.5548                 0.7506
 IR Inten    --      0.0160                 0.0000                 0.0000

                     25                     26                     27
                     B1                     B2                     A2
 Frequencies --    919.6842               928.0691               937.7691
 Red. masses --      1.4640                 5.5010                 1.9400
 Frc consts  --      0.7296                 2.7916                 1.0052
 IR Inten    --     58.6839                 2.0470                 0.0000

                     28                     29                     30
                     B2                     B1                     B1
 Frequencies --    937.9996               988.8794               993.5830
 Red. masses --      5.4596                 1.3306                 1.3694
 Frc consts  --      2.8302                 0.7666                 0.7965
 IR Inten    --      0.0000                 0.0000                 5.0538

                     31                     32                     33
                     A2                     A2                     A1
 Frequencies --   1003.3809              1003.5646              1034.6809
 Red. masses --      1.2871                 1.2919                 2.2821
 Frc consts  --      0.7635                 0.7666                 1.4394
 IR Inten    --      0.0000                 0.0000                 6.8983

                     34                     35                     36
                     A1                     B2                     A1
 Frequencies --   1041.2604              1140.9795              1147.4502
 Red. masses --      2.3682                 2.1603                 1.6101
 Frc consts  --      1.5128                 1.6570                 1.2490
 IR Inten    --      0.0000                 0.0000                 2.9011

                     37                     38                     39
                     B2                     A1                     A1
 Frequencies --   1187.3708              1201.3299              1202.0102
 Red. masses --      1.3334                 1.0594                 1.2264
 Frc consts  --      1.1076                 0.9008                 1.0440
 IR Inten    --      7.9261                 0.0000                 1.0838

                     40                     41                     42
                     B2                     B2                     A1
 Frequencies --   1220.2577              1301.9786              1303.5303
 Red. masses --      1.1893                 1.9017                 2.9233
 Frc consts  --      1.0434                 1.8993                 2.9266
 IR Inten    --      0.0000                 4.7518                 0.0000

                     43                     44                     45
                     B2                     B2                     A1
 Frequencies --   1309.4997              1358.7714              1373.1089
 Red. masses --      1.4507                 3.2044                 2.6030
 Frc consts  --      1.4657                 3.4857                 2.8916
 IR Inten    --      0.0000                 5.6572                 4.4085

                     46                     47                     48
                     B2                     A1                     A1
 Frequencies --   1425.5364              1448.2275              1466.0463
 Red. masses --      1.5767                 4.2537                 8.3622
 Frc consts  --      1.8878                 5.2565                10.5892
 IR Inten    --      0.0000                 1.5047                 0.0000

                     49                     50                     51
                     A1                     B2                     A1
 Frequencies --   1497.9533              1505.1617              1535.2824
 Red. masses --      2.0468                 3.0181                 2.7863
 Frc consts  --      2.7060                 4.0286                 3.8694
 IR Inten    --      1.4265                 1.1998                 0.0000

                     52                     53                     54
                     A1                     A1                     B2
 Frequencies --   1611.9562              1635.7380              1658.3112
 Red. masses --      5.3678                 7.5063                 5.3955
 Frc consts  --      8.2177                11.8332                 8.7420
 IR Inten    --      7.6757                 0.0000                 0.0000

                     55                     56                     57
                     B2                     B2                     B2
 Frequencies --   1708.7391              1717.3713              3182.5871
 Red. masses --      5.9645                 6.5984                 1.0902
 Frc consts  --     10.2606                11.4662                 6.5063
 IR Inten    --      5.0431                 0.0000                12.4802

                     58                     59                     60
                     A1                     B2                     B2
 Frequencies --   3184.4125              3187.8479              3187.9320
 Red. masses --      1.0908                 1.0860                 1.0861
 Frc consts  --      6.5172                 6.5024                 6.5036
 IR Inten    --      0.0000                 0.0000                 6.9020

                     61                     62                     63
                     A1                     A1                     B2
 Frequencies --   3192.0730              3192.8354              3207.0025
 Red. masses --      1.0884                 1.0885                 1.0947
 Frc consts  --      6.5343                 6.5380                 6.6336
 IR Inten    --      0.0494                 0.0000                 0.0000

                     64                     65                     66
                     B2                     A1                     A1
 Frequencies --   3207.1494              3219.5949              3219.8987
 Red. masses --      1.0948                 1.0980                 1.0979
 Frc consts  --      6.6345                 6.7057                 6.7068
 IR Inten    --     44.5339                40.7274                 0.0000

 - Thermochemistry -
 -------------------
 Temperature   298.150 Kelvin.  Pressure   1.00000 Atm.
 Atom     1 has atomic number  6 and mass  12.00000

 Molecular mass:   178.07825 amu.
 Principal axes and moments of inertia in atomic units:
                           1         2         3
     Eigenvalues --   831.043493950.350194781.39368
           X            0.00000   0.00000   1.00000
           Y            0.00000   1.00000   0.00000
           Z            1.00000   0.00000   0.00000
 This molecule is an asymmetric top.
 Rotational symmetry number  2.
 Warning -- assumption of classical behavior for rotation
           may cause significant error
 Rotational temperatures (Kelvin)      0.10422     0.02193     0.01811
 Rotational constants (GHZ):           2.17166     0.45686     0.37745
 Zero-point vibrational energy     513902.5 (Joules/Mol)
                                  122.82565 (Kcal/Mol)
 Warning -- explicit consideration of  13 degrees of freedom as
           vibrations may cause significant error
 Vibrational temperatures:    130.40   177.17   338.77   343.27   392.31
          (Kelvin)            562.98   578.23   578.80   701.06   709.07
                              737.16   778.67   863.57   893.65   929.53
                              960.36  1080.59  1116.51  1121.21  1125.60
                             1153.47  1200.04  1236.15  1270.27  1323.22
                             1335.28  1349.24  1349.57  1422.78  1429.54
                             1443.64  1443.90  1488.67  1498.14  1641.61
                             1650.92  1708.36  1728.44  1729.42  1755.68
                             1873.25  1875.49  1884.08  1954.97  1975.60
                             2051.03  2083.67  2109.31  2155.22  2165.59
                             2208.93  2319.24  2353.46  2385.94  2458.49
                             2470.91  4579.03  4581.65  4586.60  4586.72
                             4592.68  4593.77  4614.16  4614.37  4632.27
                             4632.71

 Zero-point correction=                           0.195735 (Hartree/Particle)
 Thermal correction to Energy=                    0.205078
 Thermal correction to Enthalpy=                  0.206022
 Thermal correction to Gibbs Free Energy=         0.161681
 Sum of electronic and zero-point Energies=           -539.323419
 Sum of electronic and thermal Energies=              -539.314077
 Sum of electronic and thermal Enthalpies=            -539.313132
 Sum of electronic and thermal Free Energies=         -539.357474

                     E (Thermal)             CV                S
                      KCal/Mol        Cal/Mol-Kelvin    Cal/Mol-Kelvin
 Total                  128.688             40.155             93.324
 Electronic               0.000              0.000              0.000
 Translational            0.889              2.981             41.438
 Rotational               0.889              2.981             29.752
 Vibrational            126.911             34.193             22.134
 Vibration     1          0.602              1.956              3.646
 Vibration     2          0.610              1.930              3.050
 Vibration     3          0.655              1.787              1.837
 Vibration     4          0.657              1.782              1.813
 Vibration     5          0.676              1.724              1.579
 Vibration     6          0.759              1.489              0.995
 Vibration     7          0.768              1.466              0.956
 Vibration     8          0.768              1.465              0.954
 Vibration     9          0.843              1.278              0.691
 Vibration    10          0.849              1.266              0.676
 Vibration    11          0.867              1.223              0.628
 Vibration    12          0.896              1.159              0.563
 Vibration    13          0.958              1.031              0.449

 Optimization completed.
    -- Stationary point found.
 Normal termination of Gaussian 09 at Fri Jul  9 20:22:18 2021.
