 Gaussian 09, Revision D.01,
 Gaussian 09:  AM64L-G09RevD.01 24-Apr-2013

 ----------------------------------------------------------------------
 #P wB97XD/def2tzvp opt=(tight) freq integral(Grid=ultrafine) # SCF(Max
 Cycle=380) 5d 7f GFPrint
 ----------------------------------------------------------------------

 ---------------------------------------
 The PBEPBE optimization and frequencies
 ---------------------------------------
 Symbolic Z-matrix:
 Charge =  0 Multiplicity = 1

 SCF Done:  E(RwB97XD) =  -615.759033357     A.U. after   25 cycles
 SCF Done:  E(RwB97XD) =  -615.759405926     A.U. after   10 cycles
 SCF Done:  E(RwB97XD) =  -615.759428245     A.U. after    9 cycles
 SCF Done:  E(RwB97XD) =  -615.759430116     A.U. after    8 cycles
 SCF Done:  E(RwB97XD) =  -615.759430142     A.U. after    5 cycles
 Optimization completed.
    -- Stationary point found.
 Normal termination of Gaussian 09 at Fri Jul  9 20:06:20 2021.

 ---------------------------------------------------------------------
 #P Geom=AllCheck Guess=TCheck SCRF=Check GenChk RwB97XD/def2TZVP Freq
 ---------------------------------------------------------------------

 Structure from the checkpoint file:  "m1_00_129-00-0-C16H10_wB97XD.chk"
 ---------------------------------------
 The PBEPBE optimization and frequencies
 ---------------------------------------
 Charge =  0 Multiplicity = 1

                         Standard orientation:
 ---------------------------------------------------------------------
 Center     Atomic      Atomic             Coordinates (Angstroms)
 Number     Number       Type             X           Y           Z
 ---------------------------------------------------------------------
      1          6           0        0.711716    0.000000    0.000000
      2          6           0       -0.711716    0.000000    0.000000
      3          6           0       -1.419943   -1.224891    0.000000
      4          6           0       -1.419943    1.224891    0.000000
      5          6           0        1.419943    1.224891    0.000000
      6          6           0        1.419943   -1.224891    0.000000
      7          6           0       -0.673576   -2.451952    0.000000
      8          6           0       -2.813212   -1.202287    0.000000
      9          6           0       -0.673576    2.451952    0.000000
     10          6           0       -2.813212    1.202287   -0.000001
     11          6           0        0.673576    2.451952    0.000000
     12          6           0        2.813212    1.202287    0.000000
     13          6           0        0.673576   -2.451952    0.000000
     14          6           0        2.813212   -1.202287    0.000001
     15          6           0       -3.500228    0.000000   -0.000001
     16          6           0        3.500228    0.000000    0.000001
     17          1           0       -1.222380   -3.386394    0.000000
     18          1           0       -3.357527   -2.139259    0.000000
     19          1           0       -1.222380    3.386394    0.000000
     20          1           0       -3.357527    2.139259   -0.000001
     21          1           0        1.222380    3.386394    0.000000
     22          1           0        3.357527    2.139259    0.000000
     23          1           0        1.222380   -3.386394    0.000000
     24          1           0        3.357527   -2.139259    0.000001
     25          1           0       -4.582892    0.000000   -0.000001
     26          1           0        4.582892    0.000000    0.000001
 ---------------------------------------------------------------------

 SCF Done:  E(RwB97XD) =  -615.759430142     A.U. after    1 cycles

 The electronic state is 1-A.
 Alpha  occ. eigenvalues --  -10.30003 -10.30002 -10.29995 -10.29993 -10.29884
 Alpha  occ. eigenvalues --  -10.29841 -10.29221 -10.29220 -10.29139 -10.29138
 Alpha  occ. eigenvalues --  -10.29056 -10.29055 -10.28994 -10.28993 -10.28962
 Alpha  occ. eigenvalues --  -10.28962  -1.00235  -0.95965  -0.93756  -0.90308
 Alpha  occ. eigenvalues --   -0.87070  -0.85206  -0.83314  -0.81277  -0.72723
 Alpha  occ. eigenvalues --   -0.72502  -0.72300  -0.70819  -0.63899  -0.62177
 Alpha  occ. eigenvalues --   -0.61078  -0.59834  -0.58346  -0.56260  -0.53054
 Alpha  occ. eigenvalues --   -0.52396  -0.52395  -0.51184  -0.50462  -0.48636
 Alpha  occ. eigenvalues --   -0.48577  -0.47615  -0.45959  -0.45083  -0.44959
 Alpha  occ. eigenvalues --   -0.43637  -0.41150  -0.40097  -0.38765  -0.35809
 Alpha  occ. eigenvalues --   -0.33965  -0.30609  -0.27059
 Alpha virt. eigenvalues --   -0.00342   0.02851   0.05344   0.07492   0.12442
 Alpha virt. eigenvalues --    0.12484   0.13306   0.13732   0.15346   0.15712
 Alpha virt. eigenvalues --    0.16528   0.16700   0.18081   0.18554   0.19500

 Mulliken charges:
               1
     1  C   -0.030415
     2  C   -0.030415
     3  C    0.144366
     4  C    0.144366
     5  C    0.144366
     6  C    0.144366
     7  C   -0.183867
     8  C   -0.173012
     9  C   -0.183867
    10  C   -0.173012
    11  C   -0.183867
    12  C   -0.173012
    13  C   -0.183867
    14  C   -0.173012
    15  C   -0.087386
    16  C   -0.087386
    17  H    0.105012
    18  H    0.108795
    19  H    0.105012
    20  H    0.108795
    21  H    0.105012
    22  H    0.108795
    23  H    0.105012
    24  H    0.108795
    25  H    0.115212
    26  H    0.115212
 Sum of Mulliken charges =   0.00000

 Dipole moment (field-independent basis, Debye):
    X=              0.0000    Y=              0.0000    Z=              0.0000  Tot=              0.0000
 Quadrupole moment (field-independent basis, Debye-Ang):
   XX=            -79.4520   YY=            -79.6388   ZZ=            -98.4601
   XY=              0.0000   XZ=              0.0000   YZ=              0.0000

  Exact polarizability: 277.649   0.000 200.590   0.000   0.000  85.346
 Approx polarizability: 324.992   0.000 247.452   0.000   0.000 114.935

                      1                      2                      3
                      A                      A                      A
 Frequencies --     98.4021               153.2031               216.1892
 Red. masses --      4.5964                 4.2339                 3.8548
 Frc consts  --      0.0262                 0.0585                 0.1062
 IR Inten    --      0.6037                 0.0000                10.6126

                      4                      5                      6
                      A                      A                      A
 Frequencies --    252.3262               265.1335               363.4402
 Red. masses --      3.4602                 4.5336                 4.5521
 Frc consts  --      0.1298                 0.1878                 0.3543
 IR Inten    --      0.0000                 0.0000                 1.5488

                      7                      8                      9
                      A                      A                      A
 Frequencies --    407.6397               416.1185               467.4003
 Red. masses --      3.5170                 8.0142                 6.7980
 Frc consts  --      0.3443                 0.8176                 0.8750
 IR Inten    --      0.0000                 0.0000                 0.0000

                     10                     11                     12
                      A                      A                      A
 Frequencies --    508.3232               514.0410               514.7340
 Red. masses --      3.5859                 4.9549                 4.3094
 Frc consts  --      0.5459                 0.7714                 0.6727
 IR Inten    --      2.3134                 2.5474                 0.0000

                     13                     14                     15
                      A                      A                      A
 Frequencies --    527.2611               548.1209               557.9663
 Red. masses --      3.6969                 2.8876                 7.0849
 Frc consts  --      0.6055                 0.5111                 1.2996
 IR Inten    --      0.0000                 0.0000                 2.6863

                     16                     17                     18
                      A                      A                      A
 Frequencies --    599.8710               605.7534               710.2052
 Red. masses --      3.3476                 6.4158                 4.1248
 Frc consts  --      0.7097                 1.3871                 1.2258
 IR Inten    --      0.0000                 0.0000                 0.0000

                     19                     20                     21
                      A                      A                      A
 Frequencies --    711.5114               745.7021               756.8149
 Red. masses --      7.0627                 2.4757                 5.1728
 Frc consts  --      2.1066                 0.8111                 1.7456
 IR Inten    --      0.1697                49.0880                 0.0000

                     22                     23                     24
                      A                      A                      A
 Frequencies --    770.5897               803.5986               823.0754
 Red. masses --      1.1768                 1.2859                 5.8004
 Frc consts  --      0.4117                 0.4892                 2.3152
 IR Inten    --     23.7209                 0.0000                 0.0000

                     25                     26                     27
                      A                      A                      A
 Frequencies --    829.7098               844.3612               881.7495
 Red. masses --      1.4002                 4.4728                 2.0299
 Frc consts  --      0.5679                 1.8788                 0.9299
 IR Inten    --      0.0000                 5.7970                95.9345

                     28                     29                     30
                      A                      A                      A
 Frequencies --    904.3956               928.3015               939.9667
 Red. masses --      8.9658                 1.4005                 1.4645
 Frc consts  --      4.3207                 0.7111                 0.7624
 IR Inten    --      0.0000                 0.0000                 0.0000

                     31                     32                     33
                      A                      A                      A
 Frequencies --    989.1038               990.4463               992.5212
 Red. masses --      1.2956                 4.4907                 1.3113
 Frc consts  --      0.7468                 2.5955                 0.7611
 IR Inten    --      0.0000                 0.0069                 1.1945

                     34                     35                     36
                      A                      A                      A
 Frequencies --    999.5237              1002.6934              1030.8404
 Red. masses --      1.3201                 1.3084                 7.5458
 Frc consts  --      0.7771                 0.7750                 4.7243
 IR Inten    --      0.0000                 0.0000                 1.8579

                     37                     38                     39
                      A                      A                      A
 Frequencies --   1107.5618              1129.5260              1134.8368
 Red. masses --      2.0479                 1.6310                 2.1720
 Frc consts  --      1.4801                 1.2260                 1.6481
 IR Inten    --      0.0000                 8.2042                 0.0000

                     40                     41                     42
                      A                      A                      A
 Frequencies --   1162.5825              1183.7655              1209.9251
 Red. masses --      1.4134                 1.2439                 1.2733
 Frc consts  --      1.1256                 1.0270                 1.0983
 IR Inten    --      0.1903                 0.0000                 0.0000

                     43                     44                     45
                      A                      A                      A
 Frequencies --   1220.4947              1243.3376              1276.2226
 Red. masses --      1.2160                 2.1426                 1.6292
 Frc consts  --      1.0672                 1.9515                 1.5635
 IR Inten    --     13.1948                 0.9892                 0.0000

                     46                     47                     48
                      A                      A                      A
 Frequencies --   1277.1193              1279.0106              1339.5505
 Red. masses --      3.1363                 1.6971                 2.9417
 Frc consts  --      3.0140                 1.6358                 3.1100
 IR Inten    --      0.0000                 2.2758                 5.0436

                     49                     50                     51
                      A                      A                      A
 Frequencies --   1369.1714              1412.4704              1446.8872
 Red. masses --      3.2999                 7.3431                 1.6384
 Frc consts  --      3.6447                 8.6316                 2.0209
 IR Inten    --      0.0000                 0.0000                 0.0000

                     52                     53                     54
                      A                      A                      A
 Frequencies --   1458.4550              1480.5670              1482.8397
 Red. masses --      5.9351                 2.0306                 2.4138
 Frc consts  --      7.4381                 2.6226                 3.1271
 IR Inten    --      0.0000                 6.4408                 4.8248

                     55                     56                     57
                      A                      A                      A
 Frequencies --   1505.5572              1557.2925              1559.7332
 Red. masses --      5.3209                 3.3121                 5.5890
 Frc consts  --      7.1061                 4.7325                 8.0109
 IR Inten    --      3.9855                 0.0000                 2.7366

                     58                     59                     60
                      A                      A                      A
 Frequencies --   1630.4899              1669.4369              1672.6916
 Red. masses --      4.6925                 8.0793                 6.0847
 Frc consts  --      7.3500                13.2667                10.0305
 IR Inten    --      0.0000                 0.0000                12.8985

                     61                     62                     63
                      A                      A                      A
 Frequencies --   1684.9858              1719.9080              3187.4028
 Red. masses --      6.3290                 7.3872                 1.0864
 Frc consts  --     10.5871                12.8747                 6.5029
 IR Inten    --      1.5281                 0.0000                 1.6321

                     64                     65                     66
                      A                      A                      A
 Frequencies --   3187.4233              3189.5547              3189.6134
 Red. masses --      1.0865                 1.0863                 1.0865
 Frc consts  --      6.5034                 6.5114                 6.5125
 IR Inten    --      0.0000                 0.0077                 0.0000

                     67                     68                     69
                      A                      A                      A
 Frequencies --   3197.5493              3197.8033              3206.8633
 Red. masses --      1.0913                 1.0912                 1.0970
 Frc consts  --      6.5741                 6.5742                 6.6468
 IR Inten    --     20.1433                 0.0000                45.8505

                     70                     71                     72
                      A                      A                      A
 Frequencies --   3207.1079              3215.1947              3215.4499
 Red. masses --      1.0970                 1.0970                 1.0969
 Frc consts  --      6.6478                 6.6816                 6.6817
 IR Inten    --      0.0000                43.9290                 0.0000

 - Thermochemistry -
 -------------------
 Temperature   298.150 Kelvin.  Pressure   1.00000 Atm.
 Atom     1 has atomic number  6 and mass  12.00000

 Molecular mass:   202.07825 amu.
 Principal axes and moments of inertia in atomic units:
                           1         2         3
     Eigenvalues --  1766.458313208.370134974.82844
           X            1.00000   0.00000   0.00000
           Y            0.00000   1.00000   0.00000
           Z            0.00000   0.00000   1.00000
 This molecule is an asymmetric top.
 Rotational symmetry number  1.
 Warning -- assumption of classical behavior for rotation
           may cause significant error
 Rotational temperatures (Kelvin)      0.04903     0.02700     0.01741
 Rotational constants (GHZ):           1.02167     0.56251     0.36277
 Zero-point vibrational energy     549560.9 (Joules/Mol)
                                  131.34822 (Kcal/Mol)
 Warning -- explicit consideration of  17 degrees of freedom as
           vibrations may cause significant error
 Vibrational temperatures:    141.58   220.42   311.05   363.04   381.47
          (Kelvin)            522.91   586.50   598.70   672.48   731.36
                              739.59   740.59   758.61   788.62   802.79
                              863.08   871.54  1021.83  1023.70  1072.90
                             1088.89  1108.71  1156.20  1184.22  1193.77
                             1214.85  1268.64  1301.22  1335.62  1352.40
                             1423.10  1425.03  1428.01  1438.09  1442.65
                             1483.15  1593.53  1625.13  1632.78  1672.69
                             1703.17  1740.81  1756.02  1788.88  1836.20
                             1837.49  1840.21  1927.31  1969.93  2032.23
                             2081.75  2098.39  2130.20  2133.47  2166.16
                             2240.59  2244.11  2345.91  2401.94  2406.63
                             2424.32  2474.56  4585.96  4585.99  4589.05
                             4589.14  4600.55  4600.92  4613.96  4614.31
                             4625.94  4626.31

 Zero-point correction=                           0.209317 (Hartree/Particle)
 Thermal correction to Energy=                    0.219208
 Thermal correction to Enthalpy=                  0.220152
 Thermal correction to Gibbs Free Energy=         0.174105
 Sum of electronic and zero-point Energies=           -615.550113
 Sum of electronic and thermal Energies=              -615.540222
 Sum of electronic and thermal Enthalpies=            -615.539278
 Sum of electronic and thermal Free Energies=         -615.585325

                     E (Thermal)             CV                S
                      KCal/Mol        Cal/Mol-Kelvin    Cal/Mol-Kelvin
 Total                  137.555             43.831             96.915
 Electronic               0.000              0.000              0.000
 Translational            0.889              2.981             41.815
 Rotational               0.889              2.981             31.711
 Vibrational            135.777             37.869             23.388
 Vibration     1          0.604              1.950              3.486
 Vibration     2          0.619              1.899              2.632
 Vibration     3          0.645              1.816              1.991
 Vibration     4          0.664              1.759              1.714
 Vibration     5          0.671              1.737              1.628
 Vibration     6          0.737              1.548              1.107
 Vibration     7          0.772              1.454              0.935
 Vibration     8          0.779              1.435              0.905
 Vibration     9          0.825              1.322              0.745
 Vibration    10          0.863              1.232              0.638
 Vibration    11          0.869              1.219              0.624
 Vibration    12          0.870              1.217              0.622
 Vibration    13          0.882              1.190              0.593
 Vibration    14          0.903              1.144              0.548
 Vibration    15          0.914              1.122              0.528
 Vibration    16          0.958              1.032              0.450
 Vibration    17          0.964              1.020              0.440

 Optimization completed.
    -- Stationary point found.
 Normal termination of Gaussian 09 at Fri Jul  9 21:18:57 2021.
