 Gaussian 09, Revision D.01,
 Gaussian 09:  AM64L-G09RevD.01 24-Apr-2013

 ----------------------------------------------------------------------
 #P wB97XD/def2tzvp opt=(tight) freq integral(Grid=ultrafine) # SCF(Max
 Cycle=380) 5d 7f GFPrint
 ----------------------------------------------------------------------

 ---------------------------------------
 The PBEPBE optimization and frequencies
 ---------------------------------------
 Symbolic Z-matrix:
 Charge =  0 Multiplicity = 1

 SCF Done:  E(RwB97XD) =  -1229.11837887     A.U. after   15 cycles
 SCF Done:  E(RwB97XD) =  -1229.12114632     A.U. after   14 cycles
 SCF Done:  E(RwB97XD) =  -1229.12339817     A.U. after   14 cycles
 SCF Done:  E(RwB97XD) =  -1229.12416281     A.U. after   13 cycles
 SCF Done:  E(RwB97XD) =  -1229.12420272     A.U. after   12 cycles
 SCF Done:  E(RwB97XD) =  -1229.12420576     A.U. after   10 cycles
 SCF Done:  E(RwB97XD) =  -1229.12420594     A.U. after    7 cycles
 SCF Done:  E(RwB97XD) =  -1229.12420595     A.U. after    5 cycles
 SCF Done:  E(RwB97XD) =  -1229.12420596     A.U. after    5 cycles
 SCF Done:  E(RwB97XD) =  -1229.12420596     A.U. after    4 cycles
 Optimization completed.
    -- Stationary point found.
 Normal termination of Gaussian 09 at Mon Jul 29 17:52:10 2019.

 ---------------------------------------------------------------------
 #P Geom=AllCheck Guess=TCheck SCRF=Check GenChk RwB97XD/def2TZVP Freq
 ---------------------------------------------------------------------

 Structure from the checkpoint file:  "m1_00_120836-18-2-C32H16_wB97XD.chk"
 ---------------------------------------
 The PBEPBE optimization and frequencies
 ---------------------------------------
 Charge =  0 Multiplicity = 1

                         Standard orientation:
 ---------------------------------------------------------------------
 Center     Atomic      Atomic             Coordinates (Angstroms)
 Number     Number       Type             X           Y           Z
 ---------------------------------------------------------------------
      1          6           0        5.536240   -0.371326    0.785104
      2          6           0        5.728582   -1.740957    0.483878
      3          6           0        4.667700   -2.495778    0.104336
      4          6           0        4.320621    0.214692    0.614877
      5          6           0        3.193486   -0.518020    0.137500
      6          6           0        3.368677   -1.926117   -0.032523
      7          6           0        2.266272   -2.734880   -0.283817
      8          6           0        0.982322   -2.215331   -0.278966
      9          6           0       -0.150601   -3.061606   -0.367954
     10          6           0       -1.419077   -2.572643   -0.275981
     11          6           0       -2.568055   -3.444682   -0.312043
     12          6           0       -3.809026   -2.963680   -0.164086
     13          6           0       -4.051382   -1.553844    0.032630
     14          6           0       -5.334084   -1.067796    0.205566
     15          6           0       -5.551308    0.292274    0.396518
     16          6           0       -4.494709    1.171594    0.405064
     17          6           0       -2.950046   -0.655787    0.048218
     18          6           0       -3.173515    0.727564    0.227706
     19          6           0       -1.625745   -1.158763   -0.111872
     20          6           0       -0.535694   -0.290212   -0.093248
     21          6           0        1.910581    0.051242   -0.085922
     22          6           0        0.796916   -0.802666   -0.166998
     23          6           0        1.678775    1.490452   -0.232218
     24          6           0        1.210607    4.264553   -0.367031
     25          6           0        2.444406    3.753623   -0.676468
     26          6           0        2.672793    2.379839   -0.616048
     27          6           0        0.145801    3.396428   -0.086374
     28          6           0        0.363082    2.000233   -0.064250
     29          6           0       -0.754036    1.118833    0.045912
     30          6           0       -2.045741    1.628756    0.200663
     31          6           0       -2.214840    3.040500    0.280781
     32          6           0       -1.170361    3.886227    0.132573
     33          1           0        6.360298    0.210423    1.178291
     34          1           0        6.708204   -2.186951    0.598530
     35          1           0        4.780979   -3.558473   -0.074504
     36          1           0        4.194585    1.245491    0.907732
     37          1           0        2.409126   -3.800755   -0.421191
     38          1           0        0.008177   -4.128617   -0.476758
     39          1           0       -2.397449   -4.505322   -0.452840
     40          1           0       -4.664908   -3.627827   -0.184700
     41          1           0       -6.170027   -1.756906    0.193278
     42          1           0       -6.558675    0.662929    0.537083
     43          1           0       -4.700989    2.221127    0.554279
     44          1           0        1.031484    5.332812   -0.383823
     45          1           0        3.251560    4.413276   -0.968579
     46          1           0        3.643767    2.007848   -0.904034
     47          1           0       -3.200434    3.456656    0.427908
     48          1           0       -1.327552    4.957943    0.156153
 ---------------------------------------------------------------------

 SCF Done:  E(RwB97XD) =  -1229.12420596     A.U. after    1 cycles

 The electronic state is 1-A.
 Alpha  occ. eigenvalues --  -10.30929 -10.30692 -10.30599 -10.30525 -10.30483
 Alpha  occ. eigenvalues --  -10.30470 -10.30418 -10.30369 -10.30308 -10.30275
 Alpha  occ. eigenvalues --  -10.30229 -10.30174 -10.30150 -10.30143 -10.30120
 Alpha  occ. eigenvalues --  -10.30057 -10.29311 -10.29235 -10.29223 -10.29158
 Alpha  occ. eigenvalues --  -10.29152 -10.29146 -10.29132 -10.29113 -10.29102
 Alpha  occ. eigenvalues --  -10.29090 -10.29081 -10.29027 -10.29025 -10.29010
 Alpha  occ. eigenvalues --  -10.28977 -10.28918  -1.01731  -0.99119  -0.98534
 Alpha  occ. eigenvalues --   -0.96146  -0.94621  -0.93226  -0.91990  -0.89924
 Alpha  occ. eigenvalues --   -0.88067  -0.87829  -0.86479  -0.84340  -0.83646
 Alpha  occ. eigenvalues --   -0.83413  -0.82748  -0.79486  -0.75617  -0.74003
 Alpha  occ. eigenvalues --   -0.73667  -0.73323  -0.72334  -0.70547  -0.69406
 Alpha  occ. eigenvalues --   -0.67533  -0.66524  -0.64820  -0.63252  -0.62234
 Alpha  occ. eigenvalues --   -0.61571  -0.60600  -0.59144  -0.58806  -0.57368
 Alpha  occ. eigenvalues --   -0.56589  -0.56196  -0.54412  -0.54193  -0.53858
 Alpha  occ. eigenvalues --   -0.53097  -0.52803  -0.51917  -0.51608  -0.50787
 Alpha  occ. eigenvalues --   -0.50455  -0.50108  -0.49637  -0.49195  -0.49024
 Alpha  occ. eigenvalues --   -0.48702  -0.48101  -0.47234  -0.46287  -0.45875
 Alpha  occ. eigenvalues --   -0.45543  -0.44239  -0.43976  -0.43745  -0.43325
 Alpha  occ. eigenvalues --   -0.42383  -0.41796  -0.40891  -0.40122  -0.39280
 Alpha  occ. eigenvalues --   -0.38266  -0.36178  -0.35803  -0.35331  -0.32112
 Alpha  occ. eigenvalues --   -0.31211  -0.30774  -0.28822  -0.23959
 Alpha virt. eigenvalues --   -0.03755   0.01034   0.02413   0.03199   0.03445
 Alpha virt. eigenvalues --    0.05904   0.08111   0.08680   0.10647   0.12333
 Alpha virt. eigenvalues --    0.12690   0.12718   0.13380   0.13649   0.13752

 Mulliken charges:
               1
     1  C   -0.088898
     2  C   -0.109910
     3  C   -0.196738
     4  C   -0.375335
     5  C    0.108756
     6  C    0.180864
     7  C   -0.319891
     8  C    0.241985
     9  C   -0.330323
    10  C    0.188166
    11  C   -0.208727
    12  C   -0.176448
    13  C    0.158809
    14  C   -0.177692
    15  C   -0.085964
    16  C   -0.216177
    17  C   -0.078103
    18  C    0.106033
    19  C    0.001722
    20  C    0.086010
    21  C    0.109263
    22  C   -0.069047
    23  C    0.106862
    24  C   -0.196277
    25  C   -0.078275
    26  C   -0.322891
    27  C    0.168825
    28  C   -0.028757
    29  C   -0.031933
    30  C    0.162907
    31  C   -0.223213
    32  C   -0.198748
    33  H    0.119059
    34  H    0.117828
    35  H    0.111367
    36  H    0.187390
    37  H    0.104573
    38  H    0.099770
    39  H    0.105996
    40  H    0.105421
    41  H    0.108060
    42  H    0.112748
    43  H    0.103147
    44  H    0.109492
    45  H    0.116963
    46  H    0.190784
    47  H    0.096957
    48  H    0.103593
 Sum of Mulliken charges =   0.00000

 Dipole moment (field-independent basis, Debye):
    X=              0.0065    Y=              0.0714    Z=              0.0429  Tot=              0.0835
 Quadrupole moment (field-independent basis, Debye-Ang):
   XX=           -156.0541   YY=           -156.1688   ZZ=           -190.1729
   XY=             -0.1668   XZ=             -0.5770   YZ=              1.7073

  Exact polarizability: 636.968 -13.357 466.322  -5.230   7.595 165.645
 Approx polarizability: 690.476 -14.055 566.943 -12.901  17.962 235.453

                      1                      2                      3
                      A                      A                      A
 Frequencies --     40.6875                56.0883                78.5562
 Red. masses --      5.5077                 4.8545                 4.9778
 Frc consts  --      0.0054                 0.0090                 0.0181
 IR Inten    --      0.1545                 0.0947                 0.9799

                      4                      5                      6
                      A                      A                      A
 Frequencies --     99.4628               133.5458               155.3767
 Red. masses --      4.6802                 4.8607                 4.7819
 Frc consts  --      0.0273                 0.0511                 0.0680
 IR Inten    --      0.7313                 0.8177                 0.5083

                      7                      8                      9
                      A                      A                      A
 Frequencies --    177.0283               197.2351               215.6305
 Red. masses --      4.6182                 4.7853                 4.0064
 Frc consts  --      0.0853                 0.1097                 0.1098
 IR Inten    --      2.2750                 0.3233                 0.2724

                     10                     11                     12
                      A                      A                      A
 Frequencies --    243.7915               265.7107               282.9476
 Red. masses --      5.4235                 4.6716                 6.5369
 Frc consts  --      0.1899                 0.1943                 0.3083
 IR Inten    --      1.6422                 0.7862                 0.3296

                     13                     14                     15
                      A                      A                      A
 Frequencies --    294.1131               322.5879               333.4447
 Red. masses --      5.1334                 5.7622                 5.4859
 Frc consts  --      0.2616                 0.3533                 0.3594
 IR Inten    --      0.5952                 0.8365                 0.9015

                     16                     17                     18
                      A                      A                      A
 Frequencies --    339.9274               349.1702               376.5066
 Red. masses --      5.2075                 5.6052                 4.4992
 Frc consts  --      0.3545                 0.4026                 0.3758
 IR Inten    --      0.7736                 0.8518                 0.2467

                     19                     20                     21
                      A                      A                      A
 Frequencies --    401.9302               426.7557               455.8964
 Red. masses --      6.5059                 4.7532                 4.7714
 Frc consts  --      0.6192                 0.5100                 0.5843
 IR Inten    --      0.2602                 1.7207                 0.9542

                     22                     23                     24
                      A                      A                      A
 Frequencies --    470.5778               480.1765               492.3844
 Red. masses --      6.1483                 5.1497                 4.6670
 Frc consts  --      0.8022                 0.6996                 0.6666
 IR Inten    --      0.7877                 0.6999                 0.7833

                     25                     26                     27
                      A                      A                      A
 Frequencies --    496.0731               534.1453               537.6133
 Red. masses --      3.4406                 5.0951                 3.8100
 Frc consts  --      0.4989                 0.8565                 0.6488
 IR Inten    --      5.2528                 1.5691                 1.2522

                     28                     29                     30
                      A                      A                      A
 Frequencies --    550.7016               557.0461               557.7782
 Red. masses --      4.2912                 5.5221                 4.9611
 Frc consts  --      0.7668                 1.0096                 0.9094
 IR Inten    --      0.0645                 6.2194                 6.6653

                     31                     32                     33
                      A                      A                      A
 Frequencies --    559.5084               574.1768               605.0165
 Red. masses --      3.2983                 4.8095                 6.5735
 Frc consts  --      0.6083                 0.9342                 1.4177
 IR Inten    --      0.2396                 6.4821                 3.0473

                     34                     35                     36
                      A                      A                      A
 Frequencies --    611.6917               620.0224               634.3571
 Red. masses --      6.1598                 4.0147                 4.6879
 Frc consts  --      1.3579                 0.9093                 1.1115
 IR Inten    --      4.2794                 1.4876                 2.2700

                     37                     38                     39
                      A                      A                      A
 Frequencies --    643.7128               651.2006               676.6083
 Red. masses --      6.4308                 6.8757                 3.8291
 Frc consts  --      1.5700                 1.7179                 1.0328
 IR Inten    --      2.4736                 1.7170                 0.4240

                     40                     41                     42
                      A                      A                      A
 Frequencies --    690.3835               716.9671               734.5991
 Red. masses --      6.8985                 3.0972                 5.3319
 Frc consts  --      1.9373                 0.9380                 1.6952
 IR Inten    --      0.4300                15.0830                 1.6275

                     43                     44                     45
                      A                      A                      A
 Frequencies --    743.4667               772.0840               775.1998
 Red. masses --      3.0646                 1.6145                 3.7698
 Frc consts  --      0.9980                 0.5670                 1.3347
 IR Inten    --     16.0071                50.0665                 1.0093

                     46                     47                     48
                      A                      A                      A
 Frequencies --    780.3315               785.5954               793.7538
 Red. masses --      2.2009                 1.3932                 4.9388
 Frc consts  --      0.7896                 0.5066                 1.8334
 IR Inten    --      3.5531                 5.6842                 0.1463

                     49                     50                     51
                      A                      A                      A
 Frequencies --    803.9073               814.1811               827.5881
 Red. masses --      1.7866                 6.4122                 2.0794
 Frc consts  --      0.6803                 2.5044                 0.8391
 IR Inten    --      5.3123                 1.6370                15.6669

                     52                     53                     54
                      A                      A                      A
 Frequencies --    838.9818               845.2179               861.7096
 Red. masses --      3.2671                 1.9257                 4.8745
 Frc consts  --      1.3549                 0.8105                 2.1326
 IR Inten    --     14.6918                48.7014                 1.7077

                     55                     56                     57
                      A                      A                      A
 Frequencies --    874.1340               879.9404               888.1787
 Red. masses --      1.8590                 3.1042                 4.3313
 Frc consts  --      0.8369                 1.4161                 2.0131
 IR Inten    --      5.4972                 6.1183                 4.1444

                     58                     59                     60
                      A                      A                      A
 Frequencies --    901.3949               910.6179               926.0894
 Red. masses --      1.9251                 5.8659                 1.4946
 Frc consts  --      0.9216                 2.8659                 0.7552
 IR Inten    --      0.4132                 8.9031                 0.3097

                     61                     62                     63
                      A                      A                      A
 Frequencies --    937.7495               938.6209               952.6674
 Red. masses --      1.7889                 5.4285                 1.4614
 Frc consts  --      0.9268                 2.8178                 0.7815
 IR Inten    --     37.0336                 4.7183                 0.9405

                     64                     65                     66
                      A                      A                      A
 Frequencies --    968.8825               978.0932               979.9755
 Red. masses --      5.1352                 1.3548                 5.2504
 Frc consts  --      2.8402                 0.7636                 2.9708
 IR Inten    --      1.3286                 0.7766                 2.9813

                     67                     68                     69
                      A                      A                      A
 Frequencies --    989.7050               994.5122              1001.5725
 Red. masses --      1.3003                 1.3395                 1.3128
 Frc consts  --      0.7504                 0.7806                 0.7759
 IR Inten    --      0.2556                 1.5258                 0.2786

                     70                     71                     72
                      A                      A                      A
 Frequencies --   1003.8907              1025.8443              1043.2346
 Red. masses --      1.3127                 1.3259                 4.2439
 Frc consts  --      0.7794                 0.8221                 2.7213
 IR Inten    --      0.0969                 1.1816                 4.5114

                     73                     74                     75
                      A                      A                      A
 Frequencies --   1055.4540              1064.0424              1116.0672
 Red. masses --      2.9063                 3.4339                 2.2799
 Frc consts  --      1.9075                 2.2906                 1.6732
 IR Inten    --      5.5557                 0.2580                 2.4654

                     76                     77                     78
                      A                      A                      A
 Frequencies --   1119.5990              1140.7696              1165.7018
 Red. masses --      2.5187                 2.1447                 1.7773
 Frc consts  --      1.8602                 1.6444                 1.4229
 IR Inten    --      4.3485                 2.4742                 1.1108

                     79                     80                     81
                      A                      A                      A
 Frequencies --   1170.8158              1179.7702              1192.1545
 Red. masses --      1.8056                 1.5265                 1.2363
 Frc consts  --      1.4583                 1.2518                 1.0353
 IR Inten    --      1.3844                 7.1301                 0.8161

                     82                     83                     84
                      A                      A                      A
 Frequencies --   1206.5692              1210.0574              1224.6863
 Red. masses --      1.5459                 1.1997                 1.6772
 Frc consts  --      1.3260                 1.0350                 1.4821
 IR Inten    --      0.0394                 0.7975                 0.8875

                     85                     86                     87
                      A                      A                      A
 Frequencies --   1232.8644              1243.7418              1250.5100
 Red. masses --      1.4809                 1.7230                 1.8281
 Frc consts  --      1.3262                 1.5703                 1.6844
 IR Inten    --      4.0051                 1.6070                 2.3657

                     88                     89                     90
                      A                      A                      A
 Frequencies --   1268.2772              1270.6062              1273.5242
 Red. masses --      2.0895                 1.8612                 1.8653
 Frc consts  --      1.9802                 1.7704                 1.7824
 IR Inten    --      1.9251                 0.5463                 2.5658

                     91                     92                     93
                      A                      A                      A
 Frequencies --   1307.1568              1335.7581              1348.8979
 Red. masses --      3.0201                 2.6070                 2.7047
 Frc consts  --      3.0404                 2.7406                 2.8995
 IR Inten    --      1.2480                 6.5857                 3.9272

                     94                     95                     96
                      A                      A                      A
 Frequencies --   1355.9864              1366.5581              1379.8619
 Red. masses --      3.4456                 3.0256                 5.3651
 Frc consts  --      3.7328                 3.3291                 6.0186
 IR Inten    --      5.7254                12.0915                 0.6419

                     97                     98                     99
                      A                      A                      A
 Frequencies --   1391.5637              1395.7935              1420.5995
 Red. masses --      3.7779                 5.2772                 3.7602
 Frc consts  --      4.3103                 6.0576                 4.4710
 IR Inten    --      2.4774                 0.2056                 0.7096

                    100                    101                    102
                      A                      A                      A
 Frequencies --   1434.1037              1442.8666              1451.9805
 Red. masses --      3.6192                 4.0734                 2.6022
 Frc consts  --      4.3855                 4.9964                 3.2323
 IR Inten    --      0.3360                 2.6675                 3.2678

                    103                    104                    105
                      A                      A                      A
 Frequencies --   1457.2233              1469.1393              1481.2790
 Red. masses --      3.7853                 2.8846                 3.0126
 Frc consts  --      4.7359                 3.6683                 3.8946
 IR Inten    --      4.4016                 0.5323                 2.3258

                    106                    107                    108
                      A                      A                      A
 Frequencies --   1487.5178              1508.3627              1518.3244
 Red. masses --      3.6950                 3.1577                 4.1273
 Frc consts  --      4.8172                 4.2329                 5.6059
 IR Inten    --      2.8336                 7.2896                 0.5441

                    109                    110                    111
                      A                      A                      A
 Frequencies --   1525.4552              1531.1530              1570.1537
 Red. masses --      4.2789                 3.2688                 4.3413
 Frc consts  --      5.8666                 4.5152                 6.3060
 IR Inten    --      4.9335                 4.2821                 0.7960

                    112                    113                    114
                      A                      A                      A
 Frequencies --   1578.1553              1597.6134              1634.8343
 Red. masses --      5.1871                 6.7366                 7.0323
 Frc consts  --      7.6116                10.1306                11.0738
 IR Inten    --      0.9833                 1.0630                 2.4340

                    115                    116                    117
                      A                      A                      A
 Frequencies --   1641.4550              1654.6644              1662.9157
 Red. masses --      6.5260                 6.8879                 5.9783
 Frc consts  --     10.3599                11.1111                 9.7403
 IR Inten    --      2.3483                 1.4201                 5.8335

                    118                    119                    120
                      A                      A                      A
 Frequencies --   1670.6491              1686.7513              1699.8173
 Red. masses --      6.5129                 7.0929                 6.3127
 Frc consts  --     10.7101                11.8899                10.7465
 IR Inten    --      3.6069                 4.8706                 3.3293

                    121                    122                    123
                      A                      A                      A
 Frequencies --   1703.1803              1718.8125              3187.3324
 Red. masses --      7.2434                 7.2734                 1.0883
 Frc consts  --     12.3798                12.6603                 6.5141
 IR Inten    --      3.1389                 4.0748                 1.4982

                    124                    125                    126
                      A                      A                      A
 Frequencies --   3188.4690              3190.1382              3192.0135
 Red. masses --      1.0889                 1.0885                 1.0887
 Frc consts  --      6.5226                 6.5270                 6.5355
 IR Inten    --      0.4572                 3.9783                 8.5431

                    127                    128                    129
                      A                      A                      A
 Frequencies --   3192.3766              3194.4410              3196.6130
 Red. masses --      1.0877                 1.0878                 1.0890
 Frc consts  --      6.5309                 6.5399                 6.5560
 IR Inten    --      3.8490                 0.8998                 7.1917

                    130                    131                    132
                      A                      A                      A
 Frequencies --   3202.0443              3207.9732              3209.7220
 Red. masses --      1.0904                 1.0974                 1.0933
 Frc consts  --      6.5870                 6.6540                 6.6362
 IR Inten    --     11.6532                21.1195                32.2989

                    133                    134                    135
                      A                      A                      A
 Frequencies --   3213.1048              3218.2809              3229.3474
 Red. masses --      1.0950                 1.0966                 1.0950
 Frc consts  --      6.6605                 6.6916                 6.7284
 IR Inten    --     25.4956                27.0816                 1.1142

                    136                    137                    138
                      A                      A                      A
 Frequencies --   3238.5482              3246.7860              3252.1190
 Red. masses --      1.0936                 1.0901                 1.0914
 Frc consts  --      6.7581                 6.7704                 6.8009
 IR Inten    --      2.0368                20.5586                 5.2774

 - Thermochemistry -
 -------------------
 Temperature   298.150 Kelvin.  Pressure   1.00000 Atm.
 Atom     1 has atomic number  6 and mass  12.00000

 Molecular mass:   400.12520 amu.
 Principal axes and moments of inertia in atomic units:
                           1         2         3
     Eigenvalues --  7436.98039********************
           X            1.00000  -0.00052   0.00004
           Y            0.00052   1.00000   0.00099
           Z           -0.00004  -0.00099   1.00000
 This molecule is an asymmetric top.
 Rotational symmetry number  1.
 Warning -- assumption of classical behavior for rotation
           may cause significant error
 Rotational temperatures (Kelvin)      0.01165     0.00605     0.00404
 Rotational constants (GHZ):           0.24267     0.12601     0.08424
 Zero-point vibrational energy     990815.1 (Joules/Mol)
                                  236.81050 (Kcal/Mol)
 Warning -- explicit consideration of  35 degrees of freedom as
           vibrations may cause significant error
 Vibrational temperatures:     58.54    80.70   113.02   143.10   192.14
          (Kelvin)            223.55   254.70   283.78   310.24   350.76
                              382.30   407.10   423.16   464.13   479.75
                              489.08   502.38   541.71   578.29   614.01
                              655.93   677.06   690.87   708.43   713.74
                              768.52   773.50   792.34   801.46   802.52
                              805.01   826.11   870.48   880.09   892.07
                              912.70   926.16   936.93   973.49   993.31
                             1031.55  1056.92  1069.68  1110.86  1115.34
                             1122.72  1130.30  1142.03  1156.64  1171.42
                             1190.71  1207.11  1216.08  1239.81  1257.68
                             1266.04  1277.89  1296.90  1310.17  1332.43
                             1349.21  1350.46  1370.67  1394.00  1407.26
                             1409.96  1423.96  1430.88  1441.04  1444.37
                             1475.96  1500.98  1518.56  1530.92  1605.77
                             1610.85  1641.31  1677.18  1684.54  1697.42
                             1715.24  1735.98  1741.00  1762.05  1773.81
                             1789.46  1799.20  1824.77  1828.12  1832.31
                             1880.70  1921.86  1940.76  1950.96  1966.17
                             1985.31  2002.15  2008.23  2043.92  2063.35
                             2075.96  2089.07  2096.62  2113.76  2131.23
                             2140.20  2170.19  2184.53  2194.79  2202.98
                             2259.10  2270.61  2298.61  2352.16  2361.68
                             2380.69  2392.56  2403.69  2426.86  2445.65
                             2450.49  2472.98  4585.85  4587.49  4589.89
                             4592.59  4593.11  4596.08  4599.21  4607.02
                             4615.55  4618.07  4622.94  4630.38  4646.30
                             4659.54  4671.40  4679.07

 Zero-point correction=                           0.377382 (Hartree/Particle)
 Thermal correction to Energy=                    0.396737
 Thermal correction to Enthalpy=                  0.397681
 Thermal correction to Gibbs Free Energy=         0.331145
 Sum of electronic and zero-point Energies=          -1228.746824
 Sum of electronic and thermal Energies=             -1228.727469
 Sum of electronic and thermal Enthalpies=           -1228.726525
 Sum of electronic and thermal Free Energies=        -1228.793060

                     E (Thermal)             CV                S
                      KCal/Mol        Cal/Mol-Kelvin    Cal/Mol-Kelvin
 Total                  248.956             86.358            140.036
 Electronic               0.000              0.000              0.000
 Translational            0.889              2.981             43.851
 Rotational               0.889              2.981             36.077
 Vibrational            247.179             80.396             60.108
 Vibration     1          0.594              1.981              5.225
 Vibration     2          0.596              1.975              4.590
 Vibration     3          0.600              1.964              3.927
 Vibration     4          0.604              1.949              3.465
 Vibration     5          0.613              1.920              2.894
 Vibration     6          0.620              1.897              2.605
 Vibration     7          0.628              1.871              2.360
 Vibration     8          0.637              1.844              2.159
 Vibration     9          0.645              1.817              1.995
 Vibration    10          0.659              1.773              1.775
 Vibration    11          0.672              1.736              1.624
 Vibration    12          0.682              1.705              1.516
 Vibration    13          0.689              1.685              1.450
 Vibration    14          0.708              1.630              1.297
 Vibration    15          0.715              1.609              1.243
 Vibration    16          0.720              1.596              1.212
 Vibration    17          0.726              1.577              1.170
 Vibration    18          0.747              1.520              1.053
 Vibration    19          0.768              1.466              0.956
 Vibration    20          0.788              1.412              0.869
 Vibration    21          0.814              1.348              0.778
 Vibration    22          0.828              1.315              0.736
 Vibration    23          0.837              1.294              0.710
 Vibration    24          0.848              1.267              0.677
 Vibration    25          0.852              1.259              0.668
 Vibration    26          0.889              1.174              0.578
 Vibration    27          0.893              1.167              0.570
 Vibration    28          0.906              1.138              0.543
 Vibration    29          0.913              1.124              0.530
 Vibration    30          0.913              1.123              0.528
 Vibration    31          0.915              1.119              0.525
 Vibration    32          0.930              1.087              0.496
 Vibration    33          0.964              1.021              0.441
 Vibration    34          0.971              1.007              0.430
 Vibration    35          0.980              0.990              0.416

 Normal termination of Gaussian 09 at Tue Jul 30 06:20:29 2019.
