 Gaussian 09, Revision D.01,
 Gaussian 09:  AM64L-G09RevD.01 24-Apr-2013

 ----------------------------------------------------------------------
 #P wB97XD/def2tzvp opt=(tight) freq integral(Grid=ultrafine) # SCF(Max
 Cycle=380) 5d 7f GFPrint
 ----------------------------------------------------------------------

 ---------------------------------------
 The PBEPBE optimization and frequencies
 ---------------------------------------
 Symbolic Z-matrix:
 Charge =  0 Multiplicity = 1

 SCF Done:  E(RwB97XD) =  -696.786737278     A.U. after   16 cycles
 SCF Done:  E(RwB97XD) =  -696.787025405     A.U. after   14 cycles
 SCF Done:  E(RwB97XD) =  -696.786455765     A.U. after   13 cycles
 SCF Done:  E(RwB97XD) =  -696.787038948     A.U. after   12 cycles
 SCF Done:  E(RwB97XD) =  -696.787054351     A.U. after   10 cycles
 SCF Done:  E(RwB97XD) =  -696.787055326     A.U. after    8 cycles
 SCF Done:  E(RwB97XD) =  -696.787055492     A.U. after    7 cycles
 SCF Done:  E(RwB97XD) =  -696.787055698     A.U. after    7 cycles
 SCF Done:  E(RwB97XD) =  -696.787055963     A.U. after    7 cycles
 SCF Done:  E(RwB97XD) =  -696.787056240     A.U. after    7 cycles
 SCF Done:  E(RwB97XD) =  -696.787056379     A.U. after    8 cycles
 SCF Done:  E(RwB97XD) =  -696.787056396     A.U. after    7 cycles
 SCF Done:  E(RwB97XD) =  -696.787056397     A.U. after    5 cycles
 SCF Done:  E(RwB97XD) =  -696.787056397     A.U. after    4 cycles
 SCF Done:  E(RwB97XD) =  -696.787056397     A.U. after    3 cycles
 SCF Done:  E(RwB97XD) =  -696.787056397     A.U. after    3 cycles
 Optimization completed.
    -- Stationary point found.
 Normal termination of Gaussian 09 at Fri Jul  9 22:48:15 2021.

 ---------------------------------------------------------------------
 #P Geom=AllCheck Guess=TCheck SCRF=Check GenChk RwB97XD/def2TZVP Freq
 ---------------------------------------------------------------------

 Structure from the checkpoint file:  "m1_00_7396-38-5-C18H18_wB97XD.chk"
 ---------------------------------------
 The PBEPBE optimization and frequencies
 ---------------------------------------
 Charge =  0 Multiplicity = 1

                         Standard orientation:
 ---------------------------------------------------------------------
 Center     Atomic      Atomic             Coordinates (Angstroms)
 Number     Number       Type             X           Y           Z
 ---------------------------------------------------------------------
      1          6           0       -0.979136    2.353973   -1.105668
      2          6           0       -1.526813    1.127049   -0.418024
      3          6           0       -0.729875    0.015143   -0.041000
      4          6           0       -2.901248    1.036642   -0.312723
      5          6           0        0.729876    0.015143    0.041000
      6          6           0       -1.401807   -1.213795    0.160020
      7          6           0       -3.562776   -0.127325    0.087867
      8          6           0        1.401807   -1.213795   -0.160020
      9          6           0        1.526813    1.127049    0.418024
     10          6           0       -2.798582   -1.255230    0.266302
     11          6           0       -0.659020   -2.441128    0.130478
     12          6           0       -5.056895   -0.145146    0.237570
     13          6           0        2.798582   -1.255229   -0.266302
     14          6           0        0.659020   -2.441128   -0.130478
     15          6           0        0.979136    2.353973    1.105668
     16          6           0        2.901248    1.036642    0.312724
     17          6           0        3.562776   -0.127325   -0.087867
     18          6           0        5.056895   -0.145146   -0.237570
     19          1           0       -1.030047    3.243182   -0.476459
     20          1           0       -1.578411    2.552837   -1.995264
     21          1           0        0.052184    2.220994   -1.424789
     22          1           0       -3.495815    1.896275   -0.607029
     23          1           0       -3.275321   -2.210293    0.459073
     24          1           0       -1.202634   -3.371625    0.243154
     25          1           0       -5.545397    0.328160   -0.616324
     26          1           0       -5.362195    0.403090    1.132111
     27          1           0       -5.435060   -1.163724    0.325182
     28          1           0        3.275321   -2.210293   -0.459074
     29          1           0        1.202634   -3.371625   -0.243154
     30          1           0        1.030047    3.243182    0.476458
     31          1           0        1.578411    2.552837    1.995263
     32          1           0       -0.052184    2.220995    1.424789
     33          1           0        3.495815    1.896275    0.607029
     34          1           0        5.362195    0.403091   -1.132110
     35          1           0        5.435060   -1.163724   -0.325181
     36          1           0        5.545397    0.328160    0.616324
 ---------------------------------------------------------------------

 SCF Done:  E(RwB97XD) =  -696.787056397     A.U. after    1 cycles

 The electronic state is 1-A.
 Alpha  occ. eigenvalues --  -10.29590 -10.29590 -10.29477 -10.29444 -10.29143
 Alpha  occ. eigenvalues --  -10.29142 -10.29100 -10.29099 -10.28296 -10.28212
 Alpha  occ. eigenvalues --  -10.27803 -10.27803 -10.27659 -10.27658 -10.27541
 Alpha  occ. eigenvalues --  -10.27541 -10.27417 -10.27417  -0.98709  -0.95761
 Alpha  occ. eigenvalues --   -0.91837  -0.89700  -0.87339  -0.86132  -0.83156
 Alpha  occ. eigenvalues --   -0.80352  -0.78568  -0.78330  -0.75697  -0.71804
 Alpha  occ. eigenvalues --   -0.69031  -0.68194  -0.65075  -0.60737  -0.60242
 Alpha  occ. eigenvalues --   -0.59388  -0.55233  -0.54586  -0.54344  -0.52154
 Alpha  occ. eigenvalues --   -0.51746  -0.50792  -0.50271  -0.50015  -0.49925
 Alpha  occ. eigenvalues --   -0.49075  -0.48563  -0.47902  -0.47140  -0.46751
 Alpha  occ. eigenvalues --   -0.46583  -0.45628  -0.45239  -0.43194  -0.43119
 Alpha  occ. eigenvalues --   -0.42485  -0.40073  -0.39986  -0.38132  -0.34340
 Alpha  occ. eigenvalues --   -0.32965  -0.28410  -0.27598
 Alpha virt. eigenvalues --    0.01711   0.03380   0.07363   0.09383   0.11209
 Alpha virt. eigenvalues --    0.12178   0.12368   0.13361   0.13999   0.15077
 Alpha virt. eigenvalues --    0.15377   0.16699   0.16724   0.17399   0.17811

 Mulliken charges:
               1
     1  C   -0.399144
     2  C    0.024096
     3  C    0.025726
     4  C   -0.278287
     5  C    0.025726
     6  C    0.177912
     7  C    0.187476
     8  C    0.177912
     9  C    0.024096
    10  C   -0.307266
    11  C   -0.192921
    12  C   -0.366509
    13  C   -0.307266
    14  C   -0.192920
    15  C   -0.399144
    16  C   -0.278287
    17  C    0.187476
    18  C   -0.366509
    19  H    0.137633
    20  H    0.140193
    21  H    0.159019
    22  H    0.107361
    23  H    0.104218
    24  H    0.107053
    25  H    0.123946
    26  H    0.129833
    27  H    0.119662
    28  H    0.104218
    29  H    0.107053
    30  H    0.137633
    31  H    0.140193
    32  H    0.159019
    33  H    0.107361
    34  H    0.129833
    35  H    0.119662
    36  H    0.123946
 Sum of Mulliken charges =   0.00000

 Dipole moment (field-independent basis, Debye):
    X=              0.0000    Y=              0.5625    Z=              0.0000  Tot=              0.5625
 Quadrupole moment (field-independent basis, Debye-Ang):
   XX=            -94.8563   YY=            -98.6865   ZZ=           -110.9848
   XY=              0.0000   XZ=              0.0379   YZ=              0.0000

  Exact polarizability: 319.088   0.000 214.772  -4.642   0.000 123.039
 Approx polarizability: 316.186   0.000 261.693  -6.881   0.000 158.937

                      1                      2                      3
                      A                      A                      A
 Frequencies --     50.9061                72.7455                76.0309
 Red. masses --      3.3481                 1.0401                 1.0641
 Frc consts  --      0.0051                 0.0032                 0.0036
 IR Inten    --      0.3623                 0.0231                 0.1919

                      4                      5                      6
                      A                      A                      A
 Frequencies --     98.2289               139.7979               171.7585
 Red. masses --      3.3638                 4.0507                 3.0663
 Frc consts  --      0.0191                 0.0466                 0.0533
 IR Inten    --      0.0715                 0.3146                 6.3989

                      7                      8                      9
                      A                      A                      A
 Frequencies --    183.6916               220.8047               242.7205
 Red. masses --      3.5969                 3.3235                 3.4509
 Frc consts  --      0.0715                 0.0955                 0.1198
 IR Inten    --      0.0030                 0.6747                 1.5328

                     10                     11                     12
                      A                      A                      A
 Frequencies --    244.7429               281.5400               297.2796
 Red. masses --      2.7751                 2.2884                 2.5605
 Frc consts  --      0.0979                 0.1069                 0.1333
 IR Inten    --      1.1808                 0.5596                 0.0003

                     13                     14                     15
                      A                      A                      A
 Frequencies --    313.2340               318.7050               340.3365
 Red. masses --      1.1729                 1.3086                 3.0092
 Frc consts  --      0.0678                 0.0783                 0.2054
 IR Inten    --      0.1934                 0.0004                 1.0318

                     16                     17                     18
                      A                      A                      A
 Frequencies --    372.1581               382.9376               451.4247
 Red. masses --      3.2567                 3.5339                 3.4594
 Frc consts  --      0.2658                 0.3053                 0.4154
 IR Inten    --      0.1412                 0.0251                 1.4307

                     19                     20                     21
                      A                      A                      A
 Frequencies --    496.3991               497.4832               519.8197
 Red. masses --      3.3112                 4.3329                 4.4579
 Frc consts  --      0.4807                 0.6318                 0.7097
 IR Inten    --      0.5774                 0.1116                 3.0975

                     22                     23                     24
                      A                      A                      A
 Frequencies --    529.2212               556.5080               565.7111
 Red. masses --      4.1317                 3.6975                 3.2249
 Frc consts  --      0.6818                 0.6747                 0.6081
 IR Inten    --      3.8541                 2.3361                 1.6726

                     25                     26                     27
                      A                      A                      A
 Frequencies --    565.9814               580.7388               603.3674
 Red. masses --      5.0885                 3.8951                 3.7339
 Frc consts  --      0.9604                 0.7740                 0.8009
 IR Inten    --      0.7735                 0.7134                 0.6081

                     28                     29                     30
                      A                      A                      A
 Frequencies --    617.4141               643.1777               686.8830
 Red. masses --      3.1845                 3.6172                 4.5134
 Frc consts  --      0.7152                 0.8816                 1.2546
 IR Inten    --      0.9225                 4.0879                 0.0196

                     31                     32                     33
                      A                      A                      A
 Frequencies --    742.1311               802.1323               821.4047
 Red. masses --      2.7199                 3.8927                 1.5400
 Frc consts  --      0.8826                 1.4757                 0.6122
 IR Inten    --     28.3619                10.2321                 2.1893

                     34                     35                     36
                      A                      A                      A
 Frequencies --    844.6783               888.7542               895.8730
 Red. masses --      4.0553                 1.3915                 1.4110
 Frc consts  --      1.7047                 0.6476                 0.6672
 IR Inten    --      0.0519                 2.8863                42.2695

                     37                     38                     39
                      A                      A                      A
 Frequencies --    910.8463               920.4532               967.5272
 Red. masses --      1.5015                 1.4811                 2.6695
 Frc consts  --      0.7340                 0.7393                 1.4723
 IR Inten    --      1.1344                10.3175                 0.4669

                     40                     41                     42
                      A                      A                      A
 Frequencies --    977.2563               986.7624               998.0182
 Red. masses --      2.5154                 3.9546                 1.3339
 Frc consts  --      1.4154                 2.2687                 0.7828
 IR Inten    --      1.2046                 0.1983                 0.3027

                     43                     44                     45
                      A                      A                      A
 Frequencies --   1008.6625              1027.1210              1042.5334
 Red. masses --      2.1280                 4.8364                 1.8061
 Frc consts  --      1.2756                 3.0062                 1.1566
 IR Inten    --      2.8839                15.8019                 1.9408

                     46                     47                     48
                      A                      A                      A
 Frequencies --   1047.2139              1050.6587              1069.2944
 Red. masses --      1.6089                 1.5728                 1.5733
 Frc consts  --      1.0396                 1.0229                 1.0599
 IR Inten    --      0.0965                 0.6195                 0.3253

                     49                     50                     51
                      A                      A                      A
 Frequencies --   1071.8971              1072.2040              1078.8533
 Red. masses --      1.5535                 1.5836                 1.4934
 Frc consts  --      1.0516                 1.0727                 1.0241
 IR Inten    --      0.2389                 9.7622                 0.3714

                     52                     53                     54
                      A                      A                      A
 Frequencies --   1098.9199              1175.3864              1204.2019
 Red. masses --      2.4470                 1.5984                 1.4162
 Frc consts  --      1.7411                 1.3011                 1.2100
 IR Inten    --      1.2604                 1.1275                 3.3679

                     55                     56                     57
                      A                      A                      A
 Frequencies --   1211.2394              1240.1854              1281.2767
 Red. masses --      1.3283                 2.0018                 1.5504
 Frc consts  --      1.1482                 1.8140                 1.4996
 IR Inten    --      0.0393                 1.2531                 0.5679

                     58                     59                     60
                      A                      A                      A
 Frequencies --   1285.9059              1319.9985              1320.7099
 Red. masses --      3.1137                 2.7081                 2.5872
 Frc consts  --      3.0335                 2.7801                 2.6588
 IR Inten    --      1.5720                 7.0778                 1.2983

                     61                     62                     63
                      A                      A                      A
 Frequencies --   1367.2881              1368.4107              1416.4235
 Red. masses --      4.0892                 4.7475                 1.2462
 Frc consts  --      4.5041                 5.2378                 1.4730
 IR Inten    --      1.8298                 2.3223                 4.3057

                     64                     65                     66
                      A                      A                      A
 Frequencies --   1420.5757              1422.3470              1422.5006
 Red. masses --      1.2755                 1.2385                 1.3153
 Frc consts  --      1.5165                 1.4762                 1.5681
 IR Inten    --      0.6550                 2.8590                 0.8267

                     67                     68                     69
                      A                      A                      A
 Frequencies --   1442.5946              1443.6791              1469.7733
 Red. masses --      2.5360                 2.5420                 4.1108
 Frc consts  --      3.1095                 3.1216                 5.2321
 IR Inten    --      0.5403                 0.2520                 0.0382

                     70                     71                     72
                      A                      A                      A
 Frequencies --   1474.3639              1490.8665              1491.1745
 Red. masses --      1.7676                 1.0934                 1.0479
 Frc consts  --      2.2638                 1.4319                 1.3729
 IR Inten    --      2.2690                12.7084                 0.0493

                     73                     74                     75
                      A                      A                      A
 Frequencies --   1491.9957              1500.9240              1507.1096
 Red. masses --      1.1367                 1.2285                 1.0775
 Frc consts  --      1.4908                 1.6305                 1.4420
 IR Inten    --      2.7887                26.4244                 0.4554

                     76                     77                     78
                      A                      A                      A
 Frequencies --   1513.2291              1525.9070              1535.7466
 Red. masses --      1.6252                 1.0763                 1.0894
 Frc consts  --      2.1927                 1.4766                 1.5138
 IR Inten    --     34.7016                14.7635                 4.8012

                     79                     80                     81
                      A                      A                      A
 Frequencies --   1536.1857              1588.4416              1642.9888
 Red. masses --      2.5264                 4.5182                 7.5836
 Frc consts  --      3.5127                 6.7167                12.0613
 IR Inten    --      0.2217                 0.8433                 1.9940

                     82                     83                     84
                      A                      A                      A
 Frequencies --   1678.7042              1689.8613              1700.9296
 Red. masses --      5.6813                 6.1049                 6.8839
 Frc consts  --      9.4329                10.2715                11.7343
 IR Inten    --      0.1667                53.3782                 0.3159

                     85                     86                     87
                      A                      A                      A
 Frequencies --   3050.1620              3050.2987              3064.0048
 Red. masses --      1.0372                 1.0372                 1.0376
 Frc consts  --      5.6853                 5.6858                 5.7391
 IR Inten    --     78.6324                 0.1315                 8.2370

                     88                     89                     90
                      A                      A                      A
 Frequencies --   3067.9059              3112.3941              3112.3972
 Red. masses --      1.0381                 1.1003                 1.1003
 Frc consts  --      5.7570                 6.2799                 6.2799
 IR Inten    --     35.9547                 0.9094                27.0392

                     91                     92                     93
                      A                      A                      A
 Frequencies --   3123.1211              3128.5669              3137.8973
 Red. masses --      1.1024                 1.0994                 1.1020
 Frc consts  --      6.3352                 6.3402                 6.3930
 IR Inten    --     26.4839                 4.8583                 3.1392

                     94                     95                     96
                      A                      A                      A
 Frequencies --   3137.9034              3160.5249              3161.9748
 Red. masses --      1.1020                 1.1006                 1.1007
 Frc consts  --      6.3930                 6.4776                 6.4841
 IR Inten    --     25.2107                 0.2092                 9.2390

                     97                     98                     99
                      A                      A                      A
 Frequencies --   3168.3189              3168.3908              3181.3514
 Red. masses --      1.0903                 1.0900                 1.0903
 Frc consts  --      6.4482                 6.4472                 6.5013
 IR Inten    --     16.5564                21.3018                12.8882

                    100                    101                    102
                      A                      A                      A
 Frequencies --   3181.8928              3186.7216              3206.4347
 Red. masses --      1.0907                 1.0865                 1.0975
 Frc consts  --      6.5063                 6.5008                 6.6482
 IR Inten    --     11.7125                 4.5498                21.9867

 - Thermochemistry -
 -------------------
 Temperature   298.150 Kelvin.  Pressure   1.00000 Atm.
 Atom     1 has atomic number  6 and mass  12.00000

 Molecular mass:   234.14085 amu.
 Principal axes and moments of inertia in atomic units:
                           1         2         3
     Eigenvalues --  1968.632866253.335527810.52156
           X            1.00000   0.00000  -0.00064
           Y            0.00000   1.00000   0.00000
           Z            0.00064   0.00000   1.00000
 This molecule is an asymmetric top.
 Rotational symmetry number  1.
 Warning -- assumption of classical behavior for rotation
           may cause significant error
 Rotational temperatures (Kelvin)      0.04400     0.01385     0.01109
 Rotational constants (GHZ):           0.91675     0.28860     0.23107
 Zero-point vibrational energy     807635.6 (Joules/Mol)
                                  193.02954 (Kcal/Mol)
 Warning -- explicit consideration of  28 degrees of freedom as
           vibrations may cause significant error
 Vibrational temperatures:     73.24   104.66   109.39   141.33   201.14
          (Kelvin)            247.12   264.29   317.69   349.22   352.13
                              405.07   427.72   450.67   458.54   489.67
                              535.45   550.96   649.50   714.21   715.77
                              747.90   761.43   800.69   813.93   814.32
                              835.55   868.11   888.32   925.39   988.27
                             1067.76  1154.09  1181.82  1215.30  1278.72
                             1288.96  1310.50  1324.33  1392.05  1406.05
                             1419.73  1435.92  1451.24  1477.80  1499.97
                             1506.71  1511.66  1538.47  1542.22  1542.66
                             1552.23  1581.10  1691.12  1732.58  1742.70
                             1784.35  1843.47  1850.13  1899.18  1900.20
                             1967.22  1968.84  2037.92  2043.89  2046.44
                             2046.66  2075.57  2077.13  2114.67  2121.28
                             2145.02  2145.46  2146.65  2159.49  2168.39
                             2177.20  2195.44  2209.59  2210.23  2285.41
                             2363.89  2415.28  2431.33  2447.26  4388.50
                             4388.69  4408.41  4414.03  4478.04  4478.04
                             4493.47  4501.30  4514.73  4514.74  4547.28
                             4549.37  4558.50  4558.60  4577.25  4578.03
                             4584.98  4613.34

 Zero-point correction=                           0.307612 (Hartree/Particle)
 Thermal correction to Energy=                    0.323287
 Thermal correction to Enthalpy=                  0.324231
 Thermal correction to Gibbs Free Energy=         0.265556
 Sum of electronic and zero-point Energies=           -696.479444
 Sum of electronic and thermal Energies=              -696.463770
 Sum of electronic and thermal Enthalpies=            -696.462826
 Sum of electronic and thermal Free Energies=         -696.521501

                     E (Thermal)             CV                S
                      KCal/Mol        Cal/Mol-Kelvin    Cal/Mol-Kelvin
 Total                  202.865             63.218            123.492
 Electronic               0.000              0.000              0.000
 Translational            0.889              2.981             42.254
 Rotational               0.889              2.981             32.930
 Vibrational            201.088             57.256             48.308
 Vibration     1          0.595              1.977              4.782
 Vibration     2          0.599              1.967              4.078
 Vibration     3          0.599              1.965              3.991
 Vibration     4          0.604              1.950              3.489
 Vibration     5          0.615              1.914              2.807
 Vibration     6          0.626              1.877              2.416
 Vibration     7          0.631              1.862              2.291
 Vibration     8          0.648              1.809              1.952
 Vibration     9          0.659              1.775              1.783
 Vibration    10          0.660              1.771              1.768
 Vibration    11          0.681              1.708              1.524
 Vibration    12          0.691              1.679              1.432
 Vibration    13          0.701              1.648              1.345
 Vibration    14          0.705              1.638              1.317
 Vibration    15          0.720              1.595              1.211
 Vibration    16          0.744              1.529              1.071
 Vibration    17          0.752              1.507              1.028
 Vibration    18          0.810              1.358              0.791
 Vibration    19          0.852              1.258              0.667
 Vibration    20          0.853              1.256              0.664
 Vibration    21          0.875              1.206              0.610
 Vibration    22          0.884              1.185              0.589
 Vibration    23          0.912              1.125              0.531
 Vibration    24          0.922              1.105              0.513
 Vibration    25          0.922              1.105              0.512
 Vibration    26          0.937              1.073              0.484
 Vibration    27          0.962              1.025              0.444
 Vibration    28          0.977              0.995              0.421

 Optimization completed on the basis of negligible forces.
    -- Stationary point found.
 Normal termination of Gaussian 09 at Sat Jul 10 01:33:46 2021.
