 Gaussian 09, Revision D.01,
 Gaussian 09:  AM64L-G09RevD.01 24-Apr-2013

 ----------------------------------------------------------------------
 #P wB97XD/def2tzvp opt=(tight) freq integral(Grid=ultrafine) # SCF(Max
 Cycle=380) 5d 7f GFPrint
 ----------------------------------------------------------------------

 ---------------------------------------
 The PBEPBE optimization and frequencies
 ---------------------------------------
 Symbolic Z-matrix:
 Charge =  0 Multiplicity = 1

 SCF Done:  E(RwB97XD) =  -846.808112296     A.U. after   14 cycles
 SCF Done:  E(RwB97XD) =  -846.808542440     A.U. after   11 cycles
 SCF Done:  E(RwB97XD) =  -846.808561910     A.U. after    8 cycles
 SCF Done:  E(RwB97XD) =  -846.808563480     A.U. after    8 cycles
 SCF Done:  E(RwB97XD) =  -846.808563505     A.U. after    5 cycles
 SCF Done:  E(RwB97XD) =  -846.808563509     A.U. after    4 cycles
 SCF Done:  E(RwB97XD) =  -846.808563509     A.U. after    3 cycles
 Optimization completed.
    -- Stationary point found.
 Normal termination of Gaussian 09 at Fri Jul  9 21:03:04 2021.

 ---------------------------------------------------------------------
 #P Geom=AllCheck Guess=TCheck SCRF=Check GenChk RwB97XD/def2TZVP Freq
 ---------------------------------------------------------------------

 Structure from the checkpoint file:  "m1_00_215-58-7-C22H14_wB97XD.chk"
 ---------------------------------------
 The PBEPBE optimization and frequencies
 ---------------------------------------
 Charge =  0 Multiplicity = 1

                         Standard orientation:
 ---------------------------------------------------------------------
 Center     Atomic      Atomic             Coordinates (Angstroms)
 Number     Number       Type             X           Y           Z
 ---------------------------------------------------------------------
      1          6           0        0.249918   -0.713590   -0.000002
      2          6           0        0.249918    0.713590   -0.000001
      3          6           0       -1.027100    1.441202   -0.000001
      4          6           0        1.459647    1.377162    0.000000
      5          6           0       -1.027100   -1.441202   -0.000001
      6          6           0        1.459647   -1.377162   -0.000001
      7          6           0       -2.241050    0.734851    0.000002
      8          6           0       -1.066448    2.842925   -0.000003
      9          6           0        2.689680    0.707657    0.000000
     10          6           0       -2.241050   -0.734851    0.000002
     11          6           0       -1.066448   -2.842925   -0.000004
     12          6           0        2.689680   -0.707657    0.000000
     13          6           0       -3.440084    1.462567    0.000003
     14          6           0       -2.253463    3.536078   -0.000002
     15          6           0        3.931016    1.396234    0.000001
     16          6           0       -3.440084   -1.462567    0.000004
     17          6           0       -2.253463   -3.536078   -0.000002
     18          6           0        3.931016   -1.396234    0.000000
     19          6           0       -3.455364    2.837165    0.000002
     20          6           0        5.105583    0.707850    0.000002
     21          6           0       -3.455364   -2.837165    0.000002
     22          6           0        5.105583   -0.707850    0.000001
     23          1           0        1.492534    2.457420    0.000001
     24          1           0        1.492534   -2.457420   -0.000001
     25          1           0       -0.147949    3.410689   -0.000007
     26          1           0       -0.147949   -3.410689   -0.000008
     27          1           0       -4.387856    0.945570    0.000006
     28          1           0       -2.247580    4.618490   -0.000004
     29          1           0        3.927776    2.480003    0.000002
     30          1           0       -4.387856   -0.945570    0.000007
     31          1           0       -2.247580   -4.618490   -0.000004
     32          1           0        3.927776   -2.480003    0.000000
     33          1           0       -4.398990    3.367481    0.000003
     34          1           0        6.048050    1.240604    0.000002
     35          1           0       -4.398990   -3.367481    0.000004
     36          1           0        6.048050   -1.240604    0.000001
 ---------------------------------------------------------------------

 SCF Done:  E(RwB97XD) =  -846.808563509     A.U. after    1 cycles

 The electronic state is 1-A.
 Alpha  occ. eigenvalues --  -10.30509 -10.30468 -10.30436 -10.30420 -10.30383
 Alpha  occ. eigenvalues --  -10.30367 -10.29877 -10.29830 -10.29144 -10.29138
 Alpha  occ. eigenvalues --  -10.29063 -10.29042 -10.29039 -10.29024 -10.28992
 Alpha  occ. eigenvalues --  -10.28991 -10.28978 -10.28976 -10.28920 -10.28919
 Alpha  occ. eigenvalues --  -10.28873 -10.28873  -1.00069  -0.97835  -0.96037
 Alpha  occ. eigenvalues --   -0.93594  -0.89052  -0.88894  -0.87364  -0.86014
 Alpha  occ. eigenvalues --   -0.82966  -0.82636  -0.81110  -0.75032  -0.73129
 Alpha  occ. eigenvalues --   -0.72587  -0.69977  -0.69012  -0.68614  -0.66141
 Alpha  occ. eigenvalues --   -0.63643  -0.60817  -0.60747  -0.58279  -0.57296
 Alpha  occ. eigenvalues --   -0.56879  -0.54880  -0.54631  -0.52589  -0.52274
 Alpha  occ. eigenvalues --   -0.51295  -0.51171  -0.51144  -0.50701  -0.50374
 Alpha  occ. eigenvalues --   -0.49189  -0.48264  -0.46601  -0.46030  -0.45585
 Alpha  occ. eigenvalues --   -0.44565  -0.43686  -0.42947  -0.42662  -0.40586
 Alpha  occ. eigenvalues --   -0.40284  -0.38310  -0.37496  -0.35623  -0.34529
 Alpha  occ. eigenvalues --   -0.30834  -0.29477  -0.27605
 Alpha virt. eigenvalues --   -0.00382   0.01859   0.02223   0.06284   0.07977
 Alpha virt. eigenvalues --    0.09616   0.10400   0.12096   0.12404   0.12642
 Alpha virt. eigenvalues --    0.14217   0.14350   0.16230   0.16632   0.17788

 Mulliken charges:
               1
     1  C    0.161884
     2  C    0.161884
     3  C    0.035115
     4  C   -0.276386
     5  C    0.035115
     6  C   -0.276386
     7  C    0.091074
     8  C   -0.180583
     9  C    0.170405
    10  C    0.091074
    11  C   -0.180583
    12  C    0.170405
    13  C   -0.198987
    14  C   -0.111410
    15  C   -0.230933
    16  C   -0.198987
    17  C   -0.111410
    18  C   -0.230933
    19  C   -0.101235
    20  C   -0.099067
    21  C   -0.101235
    22  C   -0.099067
    23  H    0.092924
    24  H    0.092924
    25  H    0.096970
    26  H    0.096970
    27  H    0.095001
    28  H    0.114371
    29  H    0.108405
    30  H    0.095001
    31  H    0.114371
    32  H    0.108405
    33  H    0.114720
    34  H    0.117732
    35  H    0.114720
    36  H    0.117732
 Sum of Mulliken charges =   0.00000

 Dipole moment (field-independent basis, Debye):
    X=             -0.0119    Y=              0.0000    Z=              0.0000  Tot=              0.0119
 Quadrupole moment (field-independent basis, Debye-Ang):
   XX=           -108.5637   YY=           -108.9406   ZZ=           -135.5368
   XY=              0.0000   XZ=              0.0000   YZ=              0.0000

  Exact polarizability: 396.349   0.000 299.114   0.000   0.000 115.377
 Approx polarizability: 405.038   0.000 349.383   0.000   0.000 158.064

                      1                      2                      3
                      A                      A                      A
 Frequencies --     34.2771                36.4864                82.2217
 Red. masses --      4.0342                 4.0329                 4.9610
 Frc consts  --      0.0028                 0.0032                 0.0198
 IR Inten    --      0.0000                 0.0240                 1.7286

                      4                      5                      6
                      A                      A                      A
 Frequencies --     90.7320               158.2819               167.2905
 Red. masses --      3.4474                 5.0991                 5.1237
 Frc consts  --      0.0167                 0.0753                 0.0845
 IR Inten    --      0.0000                 0.1760                 0.3087

                      7                      8                      9
                      A                      A                      A
 Frequencies --    225.0313               249.5252               290.3874
 Red. masses --      3.8800                 5.2071                 3.6921
 Frc consts  --      0.1158                 0.1910                 0.1834
 IR Inten    --      0.0000                 0.1052                 0.0000

                     10                     11                     12
                      A                      A                      A
 Frequencies --    314.5757               325.8736               340.2338
 Red. masses --      4.3645                 5.7524                 6.2140
 Frc consts  --      0.2545                 0.3599                 0.4238
 IR Inten    --      0.5191                 0.6840                 0.2353

                     13                     14                     15
                      A                      A                      A
 Frequencies --    415.5414               425.8661               437.6621
 Red. masses --      6.7456                 3.2973                 3.0612
 Frc consts  --      0.6863                 0.3523                 0.3455
 IR Inten    --      0.3721                 1.3700                 0.8630

                     16                     17                     18
                      A                      A                      A
 Frequencies --    460.8422               463.0743               483.0336
 Red. masses --      3.1669                 5.4124                 2.6302
 Frc consts  --      0.3963                 0.6838                 0.3616
 IR Inten    --      0.0000                 0.0787                15.3963

                     19                     20                     21
                      A                      A                      A
 Frequencies --    555.5842               562.4038               568.8240
 Red. masses --      6.7067                 3.2839                 3.4966
 Frc consts  --      1.2197                 0.6120                 0.6666
 IR Inten    --      0.0641                 0.0000                 6.3961

                     22                     23                     24
                      A                      A                      A
 Frequencies --    579.4447               593.6113               613.0737
 Red. masses --      3.2947                 7.4863                 5.1639
 Frc consts  --      0.6518                 1.5543                 1.1435
 IR Inten    --      0.0000                10.0926                 0.3874

                     25                     26                     27
                      A                      A                      A
 Frequencies --    638.4922               647.1072               699.6266
 Red. masses --      6.8904                 6.7684                 6.4339
 Frc consts  --      1.6550                 1.6699                 1.8555
 IR Inten    --      4.1168                 0.5183                 0.3440

                     28                     29                     30
                      A                      A                      A
 Frequencies --    717.0815               723.3745               743.6484
 Red. masses --      2.5722                 5.6938                 2.0825
 Frc consts  --      0.7793                 1.7554                 0.6785
 IR Inten    --      0.0000                 0.7011                58.9993

                     31                     32                     33
                      A                      A                      A
 Frequencies --    766.3708               779.9719               787.3094
 Red. masses --      1.2288                 2.2335                 1.9026
 Frc consts  --      0.4252                 0.8006                 0.6949
 IR Inten    --      0.4665                 0.0000               106.4655

                     34                     35                     36
                      A                      A                      A
 Frequencies --    790.0154               800.7358               811.2747
 Red. masses --      6.0454                 1.9032                 2.0297
 Frc consts  --      2.2230                 0.7190                 0.7871
 IR Inten    --      0.0420                 0.0000                 0.0000

                     37                     38                     39
                      A                      A                      A
 Frequencies --    839.8746               869.9963               878.7585
 Red. masses --      4.7244                 1.3524                 1.5150
 Frc consts  --      1.9635                 0.6031                 0.6893
 IR Inten    --      0.0518                 0.0000                 3.0563

                     40                     41                     42
                      A                      A                      A
 Frequencies --    883.7473               909.9319               912.3579
 Red. masses --      2.7349                 1.5165                 6.4145
 Frc consts  --      1.2585                 0.7398                 3.1459
 IR Inten    --      0.0000                32.6249                 1.1905

                     43                     44                     45
                      A                      A                      A
 Frequencies --    927.6930               956.4744               969.2744
 Red. masses --      2.2227                 1.3796                 1.3504
 Frc consts  --      1.1271                 0.7436                 0.7475
 IR Inten    --      0.0000                 0.0000                 1.0556

                     46                     47                     48
                      A                      A                      A
 Frequencies --    985.9552               987.5184               987.5426
 Red. masses --      5.7031                 1.2920                 1.3537
 Frc consts  --      3.2664                 0.7423                 0.7778
 IR Inten    --      0.1039                 0.0000                 2.1150

                     49                     50                     51
                      A                      A                      A
 Frequencies --    993.1591              1002.2510              1033.7699
 Red. masses --      1.2774                 1.2866                 7.1968
 Frc consts  --      0.7423                 0.7615                 4.5314
 IR Inten    --      0.2989                 0.0000                 2.1081

                     52                     53                     54
                      A                      A                      A
 Frequencies --   1044.7940              1064.5912              1091.6233
 Red. masses --      2.7032                 3.3402                 1.8629
 Frc consts  --      1.7386                 2.2304                 1.3080
 IR Inten    --      1.7683                 3.5948                 7.8891

                     55                     56                     57
                      A                      A                      A
 Frequencies --   1100.4727              1146.5950              1167.1316
 Red. masses --      2.0819                 2.3175                 1.6433
 Frc consts  --      1.4855                 1.7951                 1.3189
 IR Inten    --      3.0288                 0.4249                 0.1368

                     58                     59                     60
                      A                      A                      A
 Frequencies --   1176.1023              1181.9298              1202.2969
 Red. masses --      1.5220                 1.3203                 1.1161
 Frc consts  --      1.2404                 1.0867                 0.9505
 IR Inten    --      3.2250                 1.7329                 1.4290

                     61                     62                     63
                      A                      A                      A
 Frequencies --   1210.6213              1232.9273              1243.9735
 Red. masses --      1.1783                 1.6835                 1.8561
 Frc consts  --      1.0175                 1.5078                 1.6923
 IR Inten    --      1.5200                 0.5782                 1.5498

                     64                     65                     66
                      A                      A                      A
 Frequencies --   1275.4855              1278.5973              1288.3241
 Red. masses --      2.0825                 2.0427                 2.4623
 Frc consts  --      1.9962                 1.9675                 2.4079
 IR Inten    --      4.0624                 0.1350                 2.6287

                     67                     68                     69
                      A                      A                      A
 Frequencies --   1324.9196              1337.4815              1357.9902
 Red. masses --      2.2308                 2.2769                 2.4430
 Frc consts  --      2.3072                 2.3997                 2.6544
 IR Inten    --      1.6763                 0.2646                 1.2101

                     70                     71                     72
                      A                      A                      A
 Frequencies --   1367.7902              1369.5052              1388.7381
 Red. masses --      1.8528                 4.2426                 2.3487
 Frc consts  --      2.0423                 4.6883                 2.6688
 IR Inten    --      1.0798                 0.1740                 4.1488

                     73                     74                     75
                      A                      A                      A
 Frequencies --   1397.5334              1449.7226              1481.9827
 Red. masses --      3.5122                 4.3421                 2.4525
 Frc consts  --      4.0415                 5.3768                 3.1736
 IR Inten    --      3.6747                 2.8862                22.6077

                     76                     77                     78
                      A                      A                      A
 Frequencies --   1486.1932              1506.4013              1514.6658
 Red. masses --      2.5487                 2.7816                 2.6741
 Frc consts  --      3.3168                 3.7190                 3.6146
 IR Inten    --      8.1667                 6.2464                 1.2212

                     79                     80                     81
                      A                      A                      A
 Frequencies --   1530.1191              1551.2175              1570.7600
 Red. masses --      2.5345                 2.6815                 3.3509
 Frc consts  --      3.4961                 3.8016                 4.8711
 IR Inten    --      0.5617                18.4007                19.3155

                     82                     83                     84
                      A                      A                      A
 Frequencies --   1634.4096              1647.8673              1655.7456
 Red. masses --      4.7364                 7.1494                 6.2739
 Frc consts  --      7.4546                11.4384                10.1339
 IR Inten    --      1.2628                 0.0023                 0.5446

                     85                     86                     87
                      A                      A                      A
 Frequencies --   1679.5001              1685.9738              1686.7964
 Red. masses --      6.1083                 5.5274                 6.0303
 Frc consts  --     10.1515                 9.2571                10.1091
 IR Inten    --      1.2822                 0.2111                 0.0546

                     88                     89                     90
                      A                      A                      A
 Frequencies --   1714.0730              3187.4689              3191.6655
 Red. masses --      6.4366                 1.0863                 1.0888
 Frc consts  --     11.1421                 6.5024                 6.5350
 IR Inten    --      0.0606                 3.2886                 0.1036

                     91                     92                     93
                      A                      A                      A
 Frequencies --   3198.2534              3199.0601              3206.8086
 Red. masses --      1.0864                 1.0868                 1.0943
 Frc consts  --      6.5472                 6.5531                 6.6300
 IR Inten    --      0.6208                 0.5517                16.9003

                     94                     95                     96
                      A                      A                      A
 Frequencies --   3212.1279              3214.1507              3219.9492
 Red. masses --      1.0913                 1.0924                 1.0978
 Frc consts  --      6.6340                 6.6488                 6.7062
 IR Inten    --     26.2966                14.3888                21.4663

                     97                     98                     99
                      A                      A                      A
 Frequencies --   3220.9443              3222.7087              3230.8298
 Red. masses --      1.0922                 1.0932                 1.0955
 Frc consts  --      6.6761                 6.6892                 6.7376
 IR Inten    --      0.1319                 0.4102                 0.3148

                    100                    101                    102
                      A                      A                      A
 Frequencies --   3246.6839              3247.0047              3250.5660
 Red. masses --      1.0888                 1.0881                 1.0897
 Frc consts  --      6.7620                 6.7592                 6.7840
 IR Inten    --     24.5011                 9.8700                13.8675

 - Thermochemistry -
 -------------------
 Temperature   298.150 Kelvin.  Pressure   1.00000 Atm.
 Atom     1 has atomic number  6 and mass  12.00000

 Molecular mass:   278.10955 amu.
 Principal axes and moments of inertia in atomic units:
                           1         2         3
     Eigenvalues --  3745.138308162.31938**********
           X            1.00000   0.00000   0.00000
           Y            0.00000   1.00000   0.00000
           Z            0.00000   0.00000   1.00000
 This molecule is an asymmetric top.
 Rotational symmetry number  1.
 Warning -- assumption of classical behavior for rotation
           may cause significant error
 Rotational temperatures (Kelvin)      0.02313     0.01061     0.00727
 Rotational constants (GHZ):           0.48189     0.22111     0.15156
 Zero-point vibrational energy     763278.9 (Joules/Mol)
                                  182.42803 (Kcal/Mol)
 Warning -- explicit consideration of  24 degrees of freedom as
           vibrations may cause significant error
 Vibrational temperatures:     49.32    52.50   118.30   130.54   227.73
          (Kelvin)            240.69   323.77   359.01   417.80   452.60
                              468.86   489.52   597.87   612.73   629.70
                              663.05   666.26   694.98   799.36   809.17
                              818.41   833.69   854.07   882.08   918.65
                              931.04  1006.61  1031.72  1040.77  1069.94
                             1102.64  1122.20  1132.76  1136.65  1152.08
                             1167.24  1208.39  1251.73  1264.34  1271.51
                             1309.19  1312.68  1334.74  1376.15  1394.57
                             1418.57  1420.82  1420.85  1428.93  1442.01
                             1487.36  1503.22  1531.71  1570.60  1583.33
                             1649.69  1679.24  1692.15  1700.53  1729.83
                             1741.81  1773.91  1789.80  1835.14  1839.61
                             1853.61  1906.26  1924.34  1953.84  1967.94
                             1970.41  1998.08  2010.74  2085.82  2132.24
                             2138.30  2167.37  2179.26  2201.50  2231.85
                             2259.97  2351.55  2370.91  2382.25  2416.42
                             2425.74  2426.92  2466.17  4586.05  4592.09
                             4601.57  4602.73  4613.88  4621.53  4624.44
                             4632.78  4634.21  4636.75  4648.44  4671.25
                             4671.71  4676.83

 Zero-point correction=                           0.290718 (Hartree/Particle)
 Thermal correction to Energy=                    0.305573
 Thermal correction to Enthalpy=                  0.306517
 Thermal correction to Gibbs Free Energy=         0.247954
 Sum of electronic and zero-point Energies=           -846.517846
 Sum of electronic and thermal Energies=              -846.502991
 Sum of electronic and thermal Enthalpies=            -846.502047
 Sum of electronic and thermal Free Energies=         -846.560609

                     E (Thermal)             CV                S
                      KCal/Mol        Cal/Mol-Kelvin    Cal/Mol-Kelvin
 Total                  191.750             63.252            123.255
 Electronic               0.000              0.000              0.000
 Translational            0.889              2.981             42.767
 Rotational               0.889              2.981             34.253
 Vibrational            189.972             57.290             46.235
 Vibration     1          0.594              1.983              5.565
 Vibration     2          0.594              1.982              5.441
 Vibration     3          0.600              1.961              3.837
 Vibration     4          0.602              1.956              3.644
 Vibration     5          0.621              1.893              2.570
 Vibration     6          0.624              1.883              2.466
 Vibration     7          0.650              1.803              1.918
 Vibration     8          0.662              1.764              1.734
 Vibration     9          0.686              1.692              1.472
 Vibration    10          0.702              1.646              1.338
 Vibration    11          0.710              1.624              1.280
 Vibration    12          0.720              1.595              1.211
 Vibration    13          0.779              1.436              0.907
 Vibration    14          0.788              1.414              0.872
 Vibration    15          0.798              1.388              0.834
 Vibration    16          0.819              1.337              0.764
 Vibration    17          0.821              1.332              0.757
 Vibration    18          0.839              1.288              0.702
 Vibration    19          0.911              1.127              0.533
 Vibration    20          0.918              1.113              0.519
 Vibration    21          0.925              1.099              0.507
 Vibration    22          0.936              1.076              0.486
 Vibration    23          0.951              1.045              0.461
 Vibration    24          0.972              1.004              0.428

 Optimization completed.
    -- Stationary point found.
 Normal termination of Gaussian 09 at Sat Jul 10 00:02:28 2021.
