 Gaussian 09, Revision D.01,
 Gaussian 09:  AM64L-G09RevD.01 24-Apr-2013

 ----------------------------------------------------------------------
 #P wB97XD/def2tzvp opt=(tight) freq integral(Grid=ultrafine) # SCF(Max
 Cycle=380) 5d 7f GFPrint
 ----------------------------------------------------------------------

 ---------------------------------------
 The PBEPBE optimization and frequencies
 ---------------------------------------
 Symbolic Z-matrix:
 Charge =  0 Multiplicity = 1

 SCF Done:  E(RwB97XD) =  -1229.13629578     A.U. after   15 cycles
 SCF Done:  E(RwB97XD) =  -1229.14204401     A.U. after   13 cycles
 SCF Done:  E(RwB97XD) =  -1229.14240939     A.U. after   12 cycles
 SCF Done:  E(RwB97XD) =  -1229.14242034     A.U. after    9 cycles
 SCF Done:  E(RwB97XD) =  -1229.14242147     A.U. after    8 cycles
 SCF Done:  E(RwB97XD) =  -1229.14242145     A.U. after    7 cycles
 SCF Done:  E(RwB97XD) =  -1229.14242150     A.U. after    4 cycles
 SCF Done:  E(RwB97XD) =  -1229.14242149     A.U. after    3 cycles
 Optimization completed.
    -- Stationary point found.
 Normal termination of Gaussian 09 at Sat Jul 27 17:17:43 2019.

 ---------------------------------------------------------------------
 #P Geom=AllCheck Guess=TCheck SCRF=Check GenChk RwB97XD/def2TZVP Freq
 ---------------------------------------------------------------------

 Structure from the checkpoint file:  "m1_00_120835-98-5-C32H16_wB97XD.chk"
 ---------------------------------------
 The PBEPBE optimization and frequencies
 ---------------------------------------
 Charge =  0 Multiplicity = 1

                         Standard orientation:
 ---------------------------------------------------------------------
 Center     Atomic      Atomic             Coordinates (Angstroms)
 Number     Number       Type             X           Y           Z
 ---------------------------------------------------------------------
      1          6           0        2.196575   -1.230262    0.000000
      2          6           0        3.277517   -2.092604    0.000000
      3          6           0        4.591469   -1.626027    0.000000
      4          6           0        4.840824   -0.280199    0.000000
      5          6           0        2.439879    0.167314    0.000000
      6          6           0        3.775288    0.633344    0.000000
      7          6           0        4.013318    2.031624    0.000000
      8          6           0        2.986763    2.910828    0.000000
      9          6           0        1.631256    2.477389    0.000000
     10          6           0        1.362883    1.111529    0.000000
     11          6           0       -0.792515    2.982161    0.000000
     12          6           0        0.538847    3.437025    0.000000
     13          6           0        0.774390    4.825211    0.000000
     14          6           0       -0.253766    5.731796    0.000000
     15          6           0       -1.573471    5.279901    0.000000
     16          6           0       -1.829192    3.933034    0.000000
     17          6           0        0.809048   -1.717914    0.000000
     18          6           0        0.506480   -3.046997    0.000000
     19          6           0       -0.262742   -0.755251    0.000000
     20          6           0        0.000000    0.634529    0.000000
     21          6           0       -1.067914    1.552024    0.000000
     22          6           0       -2.378843    1.064685    0.000000
     23          6           0       -0.826643   -3.534727    0.000000
     24          6           0       -3.476685   -4.426824    0.000000
     25          6           0       -2.428142   -5.340295    0.000000
     26          6           0       -1.120292   -4.904700    0.000000
     27          6           0       -3.227781   -3.060871    0.000000
     28          6           0       -1.886254   -2.604212    0.000000
     29          6           0       -1.593791   -1.215790    0.000000
     30          6           0       -2.662358   -0.282439    0.000000
     31          6           0       -4.016235   -0.769999    0.000000
     32          6           0       -4.286292   -2.086860    0.000000
     33          1           0        3.121094   -3.161597    0.000000
     34          1           0        5.409396   -2.335080    0.000000
     35          1           0        5.856559    0.096350    0.000000
     36          1           0        5.037242    2.385519    0.000000
     37          1           0        3.215970    3.965396    0.000000
     38          1           0        1.785168    5.203915    0.000000
     39          1           0       -0.039147    6.792750    0.000000
     40          1           0       -2.393586    5.986337    0.000000
     41          1           0       -2.859677    3.610806    0.000000
     42          1           0        1.293207   -3.788968    0.000000
     43          1           0       -3.215059    1.748737    0.000000
     44          1           0       -4.501574   -4.778421    0.000000
     45          1           0       -2.642411   -6.401528    0.000000
     46          1           0       -0.306148   -5.619684    0.000000
     47          1           0       -4.820048   -0.043196    0.000000
     48          1           0       -5.310715   -2.439871    0.000000
 ---------------------------------------------------------------------

 SCF Done:  E(RwB97XD) =  -1229.14242149     A.U. after    1 cycles

 The electronic state is 1-A'.
 Alpha  occ. eigenvalues --  -10.30677 -10.30578 -10.30567 -10.30532 -10.30521
 Alpha  occ. eigenvalues --  -10.30500 -10.30475 -10.30460 -10.30442 -10.30363
 Alpha  occ. eigenvalues --  -10.30161 -10.30153 -10.30102 -10.30087 -10.30033
 Alpha  occ. eigenvalues --  -10.29936 -10.29395 -10.29306 -10.29199 -10.29187
 Alpha  occ. eigenvalues --  -10.29174 -10.29146 -10.29126 -10.29125 -10.29117
 Alpha  occ. eigenvalues --  -10.29116 -10.29113 -10.29095 -10.29071 -10.29066
 Alpha  occ. eigenvalues --  -10.29043 -10.28995  -1.01634  -0.99561  -0.98127
 Alpha  occ. eigenvalues --   -0.96113  -0.94718  -0.93865  -0.91505  -0.90148
 Alpha  occ. eigenvalues --   -0.88198  -0.87019  -0.86563  -0.85175  -0.83859
 Alpha  occ. eigenvalues --   -0.83105  -0.82213  -0.79945  -0.75387  -0.74051
 Alpha  occ. eigenvalues --   -0.73872  -0.73674  -0.71578  -0.70673  -0.69981
 Alpha  occ. eigenvalues --   -0.67888  -0.66832  -0.64056  -0.63786  -0.62105
 Alpha  occ. eigenvalues --   -0.61081  -0.60348  -0.60023  -0.58565  -0.57697
 Alpha  occ. eigenvalues --   -0.57251  -0.55640  -0.54860  -0.54748  -0.53279
 Alpha  occ. eigenvalues --   -0.52874  -0.52280  -0.51624  -0.51519  -0.51031
 Alpha  occ. eigenvalues --   -0.50744  -0.50266  -0.50199  -0.49358  -0.48751
 Alpha  occ. eigenvalues --   -0.48614  -0.47720  -0.46849  -0.46393  -0.46016
 Alpha  occ. eigenvalues --   -0.45980  -0.44535  -0.44491  -0.43489  -0.43255
 Alpha  occ. eigenvalues --   -0.42591  -0.42041  -0.40237  -0.39950  -0.39264
 Alpha  occ. eigenvalues --   -0.39004  -0.36421  -0.35562  -0.34564  -0.32992
 Alpha  occ. eigenvalues --   -0.31597  -0.30538  -0.28685  -0.24818
 Alpha virt. eigenvalues --   -0.02935   0.00703   0.01982   0.03016   0.04519
 Alpha virt. eigenvalues --    0.06255   0.06907   0.08538   0.11033   0.12035
 Alpha virt. eigenvalues --    0.12132   0.12553   0.13522   0.13837   0.13941

 Mulliken charges:
               1
     1  C    0.051471
     2  C   -0.167190
     3  C   -0.091685
     4  C   -0.188212
     5  C   -0.103782
     6  C    0.184349
     7  C   -0.204077
     8  C   -0.206616
     9  C    0.167798
    10  C    0.003256
    11  C    0.019522
    12  C    0.056945
    13  C   -0.200478
    14  C   -0.098893
    15  C   -0.106389
    16  C   -0.168376
    17  C    0.162729
    18  C   -0.322706
    19  C    0.006292
    20  C    0.019967
    21  C    0.221225
    22  C   -0.354691
    23  C    0.157604
    24  C   -0.158389
    25  C   -0.083133
    26  C   -0.206716
    27  C    0.130066
    28  C   -0.049797
    29  C    0.085395
    30  C    0.189537
    31  C   -0.216328
    32  C   -0.195103
    33  H    0.106746
    34  H    0.112293
    35  H    0.108529
    36  H    0.101898
    37  H    0.092046
    38  H    0.098002
    39  H    0.114973
    40  H    0.114686
    41  H    0.099226
    42  H    0.086486
    43  H    0.091664
    44  H    0.108976
    45  H    0.114558
    46  H    0.107631
    47  H    0.104036
    48  H    0.104653
 Sum of Mulliken charges =   0.00000

 Dipole moment (field-independent basis, Debye):
    X=              0.0449    Y=              0.0395    Z=              0.0000  Tot=              0.0598
 Quadrupole moment (field-independent basis, Debye-Ang):
   XX=           -154.9290   YY=           -154.6164   ZZ=           -191.8851
   XY=             -0.1645   XZ=              0.0000   YZ=              0.0000

  Exact polarizability: 496.554  55.167 599.201   0.000   0.000 154.803
 Approx polarizability: 565.667  36.723 663.174   0.000   0.000 221.948

                      1                      2                      3
                     A"                     A"                     A"
 Frequencies --     26.8600                34.9483                66.8634
 Red. masses --      5.1573                 4.7447                 4.9809
 Frc consts  --      0.0022                 0.0034                 0.0131
 IR Inten    --      0.0122                 0.0026                 1.1711

                      4                      5                      6
                     A"                     A"                     A"
 Frequencies --     77.3431               135.7334               155.8424
 Red. masses --      4.0298                 5.0300                 4.4784
 Frc consts  --      0.0142                 0.0546                 0.0641
 IR Inten    --      0.5111                 0.0441                 0.9017

                      7                      8                      9
                     A"                     A'                     A"
 Frequencies --    180.6011               182.5788               214.4101
 Red. masses --      3.8808                 5.6218                 4.4196
 Frc consts  --      0.0746                 0.1104                 0.1197
 IR Inten    --      2.0964                 0.2359                 0.5704

                     10                     11                     12
                     A"                     A'                     A"
 Frequencies --    220.9868               242.5130               271.7887
 Red. masses --      4.8579                 5.5472                 3.8467
 Frc consts  --      0.1398                 0.1922                 0.1674
 IR Inten    --      0.2746                 0.6816                 0.0147

                     13                     14                     15
                     A'                     A"                     A'
 Frequencies --    298.1962               322.0800               323.5132
 Red. masses --      7.2326                 4.0593                 7.2222
 Frc consts  --      0.3789                 0.2481                 0.4454
 IR Inten    --      0.3004                 0.7544                 0.4814

                     16                     17                     18
                     A"                     A"                     A'
 Frequencies --    344.5204               355.2018               358.6504
 Red. masses --      4.4837                 5.4155                 7.5450
 Frc consts  --      0.3136                 0.4026                 0.5718
 IR Inten    --      1.4060                 4.4644                 0.2123

                     19                     20                     21
                     A'                     A"                     A"
 Frequencies --    425.6829               432.6335               462.8830
 Red. masses --      5.2378                 4.3094                 3.3007
 Frc consts  --      0.5592                 0.4752                 0.4167
 IR Inten    --      0.2150                 0.0213                 4.7976

                     22                     23                     24
                     A'                     A"                     A'
 Frequencies --    464.6165               494.1445               497.7544
 Red. masses --      4.9276                 3.7701                 7.9670
 Frc consts  --      0.6267                 0.5424                 1.1630
 IR Inten    --      2.1849                 0.0576                 0.7997

                     25                     26                     27
                     A"                     A'                     A'
 Frequencies --    516.2908               517.8435               531.3284
 Red. masses --      3.4776                 7.3433                 5.4764
 Frc consts  --      0.5462                 1.1602                 0.9109
 IR Inten    --      0.0005                 1.3835                 0.6962

                     28                     29                     30
                     A'                     A"                     A"
 Frequencies --    535.8869               548.2357               557.8804
 Red. masses --      6.2367                 3.3316                 3.4006
 Frc consts  --      1.0552                 0.5900                 0.6236
 IR Inten    --      1.0371                 0.0112                 2.6403

                     31                     32                     33
                     A"                     A'                     A"
 Frequencies --    583.6510               584.7898               593.3357
 Red. masses --      3.9855                 6.3522                 4.0101
 Frc consts  --      0.7999                 1.2799                 0.8318
 IR Inten    --      0.0605                 1.3973                 0.0203

                     34                     35                     36
                     A'                     A'                     A'
 Frequencies --    593.4036               602.1043               634.1651
 Red. masses --      7.6824                 6.6447                 6.0811
 Frc consts  --      1.5939                 1.4193                 1.4409
 IR Inten    --      0.9699                 0.5141                 9.6858

                     37                     38                     39
                     A"                     A'                     A"
 Frequencies --    655.4135               666.0476               678.9637
 Red. masses --      3.9638                 6.5293                 2.9598
 Frc consts  --      1.0032                 1.7066                 0.8039
 IR Inten    --      4.4480                 4.3037                 4.4541

                     40                     41                     42
                     A'                     A"                     A'
 Frequencies --    696.0062               717.0873               722.0845
 Red. masses --      7.2710                 3.0539                 6.5091
 Frc consts  --      2.0752                 0.9252                 1.9996
 IR Inten    --      0.0868                 9.8447                 1.7404

                     43                     44                     45
                     A"                     A'                     A"
 Frequencies --    729.2681               742.2622               774.6189
 Red. masses --      3.2397                 6.7287                 1.5591
 Frc consts  --      1.0152                 2.1842                 0.5512
 IR Inten    --     12.5729                 0.0614                45.5682

                     46                     47                     48
                     A"                     A"                     A'
 Frequencies --    779.1532               784.8773               787.6502
 Red. masses --      1.7329                 1.3823                 5.7465
 Frc consts  --      0.6198                 0.5017                 2.1005
 IR Inten    --     22.3604                 0.0512                 1.0451

                     49                     50                     51
                     A"                     A"                     A"
 Frequencies --    790.4290               813.5839               844.0563
 Red. masses --      1.5250                 2.9821                 1.8396
 Frc consts  --      0.5614                 1.1630                 0.7722
 IR Inten    --     30.6954                 6.8108                 1.3264

                     52                     53                     54
                     A'                     A"                     A'
 Frequencies --    850.4107               855.7681               866.8809
 Red. masses --      6.7045                 1.6992                 5.5957
 Frc consts  --      2.8568                 0.7332                 2.4776
 IR Inten    --      3.0809                43.8113                 2.6869

                     55                     56                     57
                     A"                     A"                     A'
 Frequencies --    872.1179               887.8037               893.6984
 Red. masses --      2.6492                 2.4350                 5.9657
 Frc consts  --      1.1872                 1.1308                 2.8073
 IR Inten    --     20.5449                 0.0207                 1.2884

                     58                     59                     60
                     A"                     A"                     A"
 Frequencies --    900.3598               917.8881               926.2494
 Red. masses --      2.5969                 1.9539                 1.8239
 Frc consts  --      1.2403                 0.9699                 0.9220
 IR Inten    --      0.0469                38.4610                 0.0003

                     61                     62                     63
                     A"                     A'                     A"
 Frequencies --    932.1153               935.3764               942.2591
 Red. masses --      2.0220                 5.6828                 2.1678
 Frc consts  --      1.0350                 2.9294                 1.1340
 IR Inten    --      0.4455                 2.3830                 0.6042

                     64                     65                     66
                     A'                     A"                     A"
 Frequencies --    950.0410               959.1804               977.9901
 Red. masses --      6.4154                 1.3664                 1.3141
 Frc consts  --      3.4116                 0.7406                 0.7405
 IR Inten    --      3.1882                 1.4924                 0.0346

                     67                     68                     69
                     A"                     A"                     A"
 Frequencies --    990.0831               991.6505               993.5874
 Red. masses --      1.3006                 1.3057                 1.2928
 Frc consts  --      0.7511                 0.7565                 0.7519
 IR Inten    --      0.1171                 0.3019                 0.7420

                     70                     71                     72
                     A"                     A'                     A'
 Frequencies --    999.7306              1017.4425              1063.5724
 Red. masses --      1.3106                 6.6608                 5.4006
 Frc consts  --      0.7718                 4.0625                 3.5993
 IR Inten    --      0.0438                 1.7346                 0.5668

                     73                     74                     75
                     A'                     A'                     A'
 Frequencies --   1081.2870              1090.3808              1100.6193
 Red. masses --      4.0033                 2.3772                 2.7096
 Frc consts  --      2.7577                 1.6653                 1.9339
 IR Inten    --      4.2154                 8.0045                 0.2919

                     76                     77                     78
                     A'                     A'                     A'
 Frequencies --   1125.4137              1134.6788              1160.2033
 Red. masses --      2.0109                 1.9774                 1.8361
 Frc consts  --      1.5006                 1.5000                 1.4562
 IR Inten    --      4.7598                 3.4698                 0.1814

                     79                     80                     81
                     A'                     A'                     A'
 Frequencies --   1179.3012              1187.9379              1194.1714
 Red. masses --      1.6702                 1.4074                 1.8380
 Frc consts  --      1.3686                 1.1702                 1.5443
 IR Inten    --      2.0249                 0.2554                 0.0401

                     82                     83                     84
                     A'                     A'                     A'
 Frequencies --   1207.8305              1212.6588              1215.4798
 Red. masses --      1.3407                 1.4061                 1.3899
 Frc consts  --      1.1524                 1.2183                 1.2099
 IR Inten    --      0.2132                 7.9189                 2.4936

                     85                     86                     87
                     A'                     A'                     A'
 Frequencies --   1228.5582              1249.0800              1261.3796
 Red. masses --      1.9202                 2.5784                 1.9292
 Frc consts  --      1.7076                 2.3702                 1.8085
 IR Inten    --      0.6237                 3.7566                 0.3709

                     88                     89                     90
                     A'                     A'                     A'
 Frequencies --   1271.7612              1284.2795              1299.4918
 Red. masses --      1.7226                 1.7447                 2.7272
 Frc consts  --      1.6415                 1.6955                 2.7134
 IR Inten    --      0.2484                 7.3515                 0.1980

                     91                     92                     93
                     A'                     A'                     A'
 Frequencies --   1304.1338              1336.7220              1344.4151
 Red. masses --      2.0739                 2.9127                 2.8381
 Frc consts  --      2.0781                 3.0664                 3.0223
 IR Inten    --      6.9881                 2.4362                 8.0522

                     94                     95                     96
                     A'                     A'                     A'
 Frequencies --   1361.0847              1366.0690              1377.4707
 Red. masses --      2.7451                 2.8780                 3.1976
 Frc consts  --      2.9963                 3.1644                 3.5747
 IR Inten    --      3.8505                 0.9336                 1.8582

                     97                     98                     99
                     A'                     A'                     A'
 Frequencies --   1391.4328              1406.6801              1416.0676
 Red. masses --      4.5626                 3.4990                 6.1560
 Frc consts  --      5.2046                 4.0793                 7.2730
 IR Inten    --      1.2934                10.9668                 0.5415

                    100                    101                    102
                     A'                     A'                     A'
 Frequencies --   1431.3682              1446.7499              1452.3167
 Red. masses --      3.5500                 4.4825                 5.2646
 Frc consts  --      4.2853                 5.5279                 6.5424
 IR Inten    --      0.7077                 6.1688                 0.9867

                    103                    104                    105
                     A'                     A'                     A'
 Frequencies --   1469.9782              1474.2435              1483.3331
 Red. masses --      2.8162                 2.6054                 3.0683
 Frc consts  --      3.5854                 3.3363                 3.9776
 IR Inten    --      0.3218                 0.3240                 5.1717

                    106                    107                    108
                     A'                     A'                     A'
 Frequencies --   1491.4325              1516.4904              1521.2766
 Red. masses --      2.5354                 3.5276                 4.0524
 Frc consts  --      3.3228                 4.7798                 5.5255
 IR Inten    --      5.5179                19.8968                 1.9807

                    109                    110                    111
                     A'                     A'                     A'
 Frequencies --   1536.5596              1549.5429              1557.2481
 Red. masses --      3.2719                 4.1234                 4.3920
 Frc consts  --      4.5514                 5.8332                 6.2752
 IR Inten    --      3.8515                 4.5670                 5.6146

                    112                    113                    114
                     A'                     A'                     A'
 Frequencies --   1579.5712              1602.6416              1638.6208
 Red. masses --      3.9547                 4.7751                 5.4615
 Frc consts  --      5.8136                 7.2262                 8.6401
 IR Inten    --      1.5548                 2.9972                 2.1564

                    115                    116                    117
                     A'                     A'                     A'
 Frequencies --   1658.2559              1661.6497              1673.9117
 Red. masses --      7.6751                 7.3553                 5.8523
 Frc consts  --     12.4348                11.9654                 9.6614
 IR Inten    --      1.0309                 8.3157                 1.2671

                    118                    119                    120
                     A'                     A'                     A'
 Frequencies --   1676.4911              1680.8059              1690.9376
 Red. masses --      6.7378                 6.5953                 5.7376
 Frc consts  --     11.1575                10.9780                 9.6658
 IR Inten    --      5.4502                 6.5639                 1.3619

                    121                    122                    123
                     A'                     A'                     A'
 Frequencies --   1702.9568              1716.4980              3187.2063
 Red. masses --      7.0127                 7.6844                 1.0863
 Frc consts  --     11.9824                13.3398                 6.5019
 IR Inten    --      3.1315                 0.8340                 0.4449

                    124                    125                    126
                     A'                     A'                     A'
 Frequencies --   3189.7796              3193.4350              3196.8730
 Red. masses --      1.0866                 1.0873                 1.0893
 Frc consts  --      6.5136                 6.5332                 6.5589
 IR Inten    --      0.1120                 0.4529                 4.9476

                    127                    128                    129
                     A'                     A'                     A'
 Frequencies --   3197.1817              3199.1713              3206.7980
 Red. masses --      1.0912                 1.0871                 1.0973
 Frc consts  --      6.5717                 6.5551                 6.6486
 IR Inten    --      7.6429                 3.6471                25.3453

                    130                    131                    132
                     A'                     A'                     A'
 Frequencies --   3209.1893              3213.8531              3216.0048
 Red. masses --      1.0923                 1.0920                 1.0951
 Frc consts  --      6.6278                 6.6457                 6.6734
 IR Inten    --     26.0653                21.1030                13.4326

                    133                    134                    135
                     A'                     A'                     A'
 Frequencies --   3216.6842              3224.5984              3233.3859
 Red. masses --      1.0951                 1.0926                 1.0950
 Frc consts  --      6.6763                 6.6936                 6.7452
 IR Inten    --     17.4472                 0.6913                 0.3539

                    136                    137                    138
                     A'                     A'                     A'
 Frequencies --   3237.3472              3250.5819              3256.8945
 Red. masses --      1.0899                 1.0882                 1.0890
 Frc consts  --      6.7301                 6.7744                 6.8057
 IR Inten    --     12.5218                17.4373                23.5066

 - Thermochemistry -
 -------------------
 Temperature   298.150 Kelvin.  Pressure   1.00000 Atm.
 Atom     1 has atomic number  6 and mass  12.00000

 Molecular mass:   400.12520 amu.
 Principal axes and moments of inertia in atomic units:
                           1         2         3
     Eigenvalues --  8240.13833********************
           X            0.46623   0.88466   0.00000
           Y            0.88466  -0.46623   0.00000
           Z            0.00000   0.00000   1.00000
 This molecule is an asymmetric top.
 Rotational symmetry number  1.
 Warning -- assumption of classical behavior for rotation
           may cause significant error
 Rotational temperatures (Kelvin)      0.01051     0.00621     0.00390
 Rotational constants (GHZ):           0.21902     0.12935     0.08132
 Zero-point vibrational energy     991258.1 (Joules/Mol)
                                  236.91638 (Kcal/Mol)
 Warning -- explicit consideration of  35 degrees of freedom as
           vibrations may cause significant error
 Vibrational temperatures:     38.65    50.28    96.20   111.28   195.29
          (Kelvin)            224.22   259.84   262.69   308.49   317.95
                              348.92   391.04   429.04   463.40   465.46
                              495.69   511.06   516.02   612.46   622.46
                              665.98   668.48   710.96   716.16   742.83
                              745.06   764.46   771.02   788.79   802.66
                              839.74   841.38   853.68   853.77   866.29
                              912.42   942.99   958.29   976.88  1001.40
                             1031.73  1038.92  1049.25  1067.95  1114.50
                             1121.03  1129.26  1133.25  1137.25  1170.56
                             1214.41  1223.55  1231.26  1247.25  1254.78
                             1277.35  1285.83  1295.42  1320.63  1332.66
                             1341.10  1345.80  1355.70  1366.90  1380.04
                             1407.11  1424.51  1426.76  1429.55  1438.39
                             1463.87  1530.24  1555.73  1568.81  1583.54
                             1619.22  1632.55  1669.27  1696.75  1709.18
                             1718.14  1737.80  1744.74  1748.80  1767.62
                             1797.15  1814.84  1829.78  1847.79  1869.68
                             1876.36  1923.24  1934.31  1958.29  1965.47
                             1981.87  2001.96  2023.90  2037.40  2059.42
                             2081.55  2089.56  2114.97  2121.10  2134.18
                             2145.84  2181.89  2188.78  2210.76  2229.44
                             2240.53  2272.65  2305.84  2357.61  2385.86
                             2390.74  2408.38  2412.09  2418.30  2432.88
                             2450.17  2469.65  4585.67  4589.38  4594.64
                             4599.58  4600.03  4602.89  4613.86  4617.30
                             4624.01  4627.11  4628.09  4639.47  4652.12
                             4657.81  4676.86  4685.94

 Zero-point correction=                           0.377550 (Hartree/Particle)
 Thermal correction to Energy=                    0.397132
 Thermal correction to Enthalpy=                  0.398076
 Thermal correction to Gibbs Free Energy=         0.330056
 Sum of electronic and zero-point Energies=          -1228.764871
 Sum of electronic and thermal Energies=             -1228.745290
 Sum of electronic and thermal Enthalpies=           -1228.744345
 Sum of electronic and thermal Free Energies=        -1228.812365

                     E (Thermal)             CV                S
                      KCal/Mol        Cal/Mol-Kelvin    Cal/Mol-Kelvin
 Total                  249.204             86.468            143.160
 Electronic               0.000              0.000              0.000
 Translational            0.889              2.981             43.851
 Rotational               0.889              2.981             36.188
 Vibrational            247.427             80.507             63.121
 Vibration     1          0.593              1.984              6.049
 Vibration     2          0.594              1.983              5.527
 Vibration     3          0.598              1.970              4.244
 Vibration     4          0.599              1.964              3.957
 Vibration     5          0.614              1.918              2.863
 Vibration     6          0.620              1.896              2.600
 Vibration     7          0.630              1.866              2.322
 Vibration     8          0.630              1.863              2.302
 Vibration     9          0.644              1.819              2.006
 Vibration    10          0.648              1.809              1.951
 Vibration    11          0.659              1.775              1.784
 Vibration    12          0.675              1.725              1.585
 Vibration    13          0.691              1.677              1.427
 Vibration    14          0.707              1.631              1.300
 Vibration    15          0.708              1.628              1.292
 Vibration    16          0.723              1.586              1.191
 Vibration    17          0.731              1.565              1.143
 Vibration    18          0.733              1.557              1.128
 Vibration    19          0.788              1.414              0.873
 Vibration    20          0.794              1.399              0.850
 Vibration    21          0.821              1.332              0.758
 Vibration    22          0.822              1.329              0.753
 Vibration    23          0.850              1.263              0.673
 Vibration    24          0.853              1.255              0.664
 Vibration    25          0.871              1.214              0.619
 Vibration    26          0.873              1.210              0.615
 Vibration    27          0.886              1.181              0.584
 Vibration    28          0.891              1.171              0.574
 Vibration    29          0.903              1.144              0.548
 Vibration    30          0.913              1.122              0.528
 Vibration    31          0.941              1.067              0.479
 Vibration    32          0.942              1.064              0.477
 Vibration    33          0.951              1.046              0.461
 Vibration    34          0.951              1.046              0.461
 Vibration    35          0.960              1.027              0.446

 Optimization completed.
    -- Stationary point found.
 Normal termination of Gaussian 09 at Sun Jul 28 00:14:45 2019.
