 Gaussian 09, Revision D.01,
 Gaussian 09:  AM64L-G09RevD.01 24-Apr-2013

 ----------------------------------------------------------------------
 #P wB97XD/def2tzvp opt=(tight) freq integral(Grid=ultrafine) # SCF(Max
 Cycle=380) 5d 7f GFPrint
 ----------------------------------------------------------------------

 ---------------------------------------
 The PBEPBE optimization and frequencies
 ---------------------------------------
 Symbolic Z-matrix:
 Charge =  0 Multiplicity = 1

 SCF Done:  E(RwB97XD) =  -543.140143225     A.U. after   17 cycles
 SCF Done:  E(RwB97XD) =  -543.140314794     A.U. after   21 cycles
 SCF Done:  E(RwB97XD) =  -543.140312032     A.U. after   13 cycles
 SCF Done:  E(RwB97XD) =  -543.140346655     A.U. after   16 cycles
 SCF Done:  E(RwB97XD) =  -543.140350838     A.U. after   15 cycles
 SCF Done:  E(RwB97XD) =  -543.140352256     A.U. after    8 cycles
 SCF Done:  E(RwB97XD) =  -543.140352491     A.U. after    7 cycles
 SCF Done:  E(RwB97XD) =  -543.140352580     A.U. after    7 cycles
 SCF Done:  E(RwB97XD) =  -543.140352591     A.U. after    5 cycles
 SCF Done:  E(RwB97XD) =  -543.140352592     A.U. after    4 cycles
 Optimization completed.
    -- Stationary point found.
 Normal termination of Gaussian 09 at Fri Jul  9 20:29:23 2021.

 ---------------------------------------------------------------------
 #P Geom=AllCheck Guess=TCheck SCRF=Check GenChk RwB97XD/def2TZVP Freq
 ---------------------------------------------------------------------

 Structure from the checkpoint file:  "m1_00_2717-39-7-C14H16_wB97XD.chk"
 ---------------------------------------
 The PBEPBE optimization and frequencies
 ---------------------------------------
 Charge =  0 Multiplicity = 1

                         Standard orientation:
 ---------------------------------------------------------------------
 Center     Atomic      Atomic             Coordinates (Angstroms)
 Number     Number       Type             X           Y           Z
 ---------------------------------------------------------------------
      1          6           0       -1.413267   -1.252760   -0.136300
      2          6           0       -0.691289   -2.411438   -0.096324
      3          6           0       -0.721033   -0.000001    0.000005
      4          6           0       -2.889128   -1.396379   -0.420934
      5          6           0        0.691296   -2.411436    0.096347
      6          6           0        1.413271   -1.252754    0.136316
      7          6           0        0.721032    0.000001    0.000004
      8          6           0        2.889133   -1.396367    0.420948
      9          6           0        1.413267    1.252758   -0.136314
     10          6           0       -1.413271    1.252756    0.136304
     11          6           0       -0.691296    2.411437    0.096322
     12          6           0       -2.889133    1.396373    0.420933
     13          6           0        0.691289    2.411437   -0.096349
     14          6           0        2.889128    1.396374   -0.420950
     15          1           0       -1.203860   -3.359620   -0.207265
     16          1           0       -3.197995   -0.781699   -1.266230
     17          1           0       -3.522533   -1.140002    0.426605
     18          1           0       -3.099679   -2.433267   -0.680609
     19          1           0        1.203871   -3.359615    0.207292
     20          1           0        3.197998   -0.781688    1.266245
     21          1           0        3.522535   -1.139983   -0.426591
     22          1           0        3.099690   -2.433254    0.680619
     23          1           0       -1.203871    3.359617    0.207257
     24          1           0       -3.522535    1.139980   -0.426605
     25          1           0       -3.099689    2.433263    0.680592
     26          1           0       -3.197999    0.781703    1.266236
     27          1           0        1.203861    3.359617   -0.207300
     28          1           0        3.522533    1.139999    0.426589
     29          1           0        3.099680    2.433260   -0.680630
     30          1           0        3.197993    0.781689   -1.266243
 ---------------------------------------------------------------------

 SCF Done:  E(RwB97XD) =  -543.140352592     A.U. after    1 cycles

 The electronic state is 1-A.
 Alpha  occ. eigenvalues --  -10.29809 -10.29769 -10.29223 -10.29221 -10.29221
 Alpha  occ. eigenvalues --  -10.29218 -10.27531 -10.27530 -10.27530 -10.27530
 Alpha  occ. eigenvalues --  -10.27431 -10.27429 -10.27374 -10.27374  -0.97767
 Alpha  occ. eigenvalues --   -0.92955  -0.90575  -0.86598  -0.83486  -0.82619
 Alpha  occ. eigenvalues --   -0.80396  -0.76457  -0.73428  -0.70951  -0.69726
 Alpha  occ. eigenvalues --   -0.63112  -0.59563  -0.58104  -0.57373  -0.55041
 Alpha  occ. eigenvalues --   -0.52910  -0.51797  -0.50660  -0.50229  -0.49452
 Alpha  occ. eigenvalues --   -0.48814  -0.48595  -0.47437  -0.46784  -0.46015
 Alpha  occ. eigenvalues --   -0.46006  -0.45864  -0.44901  -0.41827  -0.40229
 Alpha  occ. eigenvalues --   -0.39993  -0.39923  -0.33908  -0.31339  -0.27116
 Alpha virt. eigenvalues --    0.02727   0.04897   0.09668   0.11642   0.11777
 Alpha virt. eigenvalues --    0.13276   0.13975   0.15702   0.16296   0.16501
 Alpha virt. eigenvalues --    0.16834   0.17977   0.18277   0.19480   0.19844

 Mulliken charges:
               1
     1  C    0.063498
     2  C   -0.197877
     3  C    0.032544
     4  C   -0.360075
     5  C   -0.197874
     6  C    0.063496
     7  C    0.032545
     8  C   -0.360075
     9  C    0.063500
    10  C    0.063494
    11  C   -0.197874
    12  C   -0.360074
    13  C   -0.197877
    14  C   -0.360076
    15  H    0.096851
    16  H    0.136872
    17  H    0.123002
    18  H    0.121456
    19  H    0.096851
    20  H    0.136873
    21  H    0.123002
    22  H    0.121455
    23  H    0.096851
    24  H    0.123001
    25  H    0.121455
    26  H    0.136873
    27  H    0.096851
    28  H    0.123002
    29  H    0.121455
    30  H    0.136873
 Sum of Mulliken charges =   0.00000

 Dipole moment (field-independent basis, Debye):
    X=              0.0000    Y=              0.0000    Z=              0.0000  Tot=              0.0000
 Quadrupole moment (field-independent basis, Debye-Ang):
   XX=            -76.5139   YY=            -78.9663   ZZ=            -88.2008
   XY=              0.0000   XZ=              0.0000   YZ=              0.0000

  Exact polarizability: 199.969   0.000 197.084   0.000  -0.001  94.850
 Approx polarizability: 211.311   0.000 227.566   0.000  -0.001 123.901

                      1                      2                      3
                      A                      A                      A
 Frequencies --     62.5687                86.9150               106.8484
 Red. masses --      2.9944                 2.9405                 3.2363
 Frc consts  --      0.0069                 0.0131                 0.0218
 IR Inten    --      0.0000                 0.0621                 1.0315

                      4                      5                      6
                      A                      A                      A
 Frequencies --    208.9146               267.1356               269.6336
 Red. masses --      3.6088                 1.1261                 1.0752
 Frc consts  --      0.0928                 0.0473                 0.0461
 IR Inten    --      6.5501                 0.4107                 0.0000

                      7                      8                      9
                      A                      A                      A
 Frequencies --    295.2334               313.4422               327.0235
 Red. masses --      2.4922                 2.4646                 3.1894
 Frc consts  --      0.1280                 0.1427                 0.2010
 IR Inten    --      2.2798                 0.6324                 0.0000

                     10                     11                     12
                      A                      A                      A
 Frequencies --    339.4064               359.0354               364.3681
 Red. masses --      2.3900                 2.9178                 1.1465
 Frc consts  --      0.1622                 0.2216                 0.0897
 IR Inten    --      1.4824                 0.1819                 0.3806

                     13                     14                     15
                      A                      A                      A
 Frequencies --    373.5945               419.8565               463.4663
 Red. masses --      1.2027                 3.1330                 4.6319
 Frc consts  --      0.0989                 0.3254                 0.5862
 IR Inten    --      0.0264                 0.0000                 0.0000

                     16                     17                     18
                      A                      A                      A
 Frequencies --    465.3487               492.7411               493.0661
 Red. masses --      4.2459                 3.2930                 4.1564
 Frc consts  --      0.5417                 0.4711                 0.5954
 IR Inten    --      1.4305                 0.0811                 0.9100

                     19                     20                     21
                      A                      A                      A
 Frequencies --    496.5645               597.1073               625.6167
 Red. masses --      3.1412                 4.2266                 2.8114
 Frc consts  --      0.4563                 0.8879                 0.6483
 IR Inten    --      3.8529                 0.0000                 0.3897

                     22                     23                     24
                      A                      A                      A
 Frequencies --    652.4544               665.3422               750.4490
 Red. masses --      3.0540                 4.2072                 4.8820
 Frc consts  --      0.7660                 1.0973                 1.6199
 IR Inten    --      0.0000                 4.5599                 0.1095

                     25                     26                     27
                      A                      A                      A
 Frequencies --    782.1762               835.5488               841.0467
 Red. masses --      5.3481                 5.2800                 2.0207
 Frc consts  --      1.9278                 2.1718                 0.8422
 IR Inten    --      2.6258                 2.6763                 0.8010

                     28                     29                     30
                      A                      A                      A
 Frequencies --    844.5994               850.9911               930.0834
 Red. masses --      1.8966                 1.2136                 3.9491
 Frc consts  --      0.7971                 0.5178                 2.0128
 IR Inten    --      0.4977                48.8674                 4.7899

                     31                     32                     33
                      A                      A                      A
 Frequencies --    950.0996               956.8797              1005.9342
 Red. masses --      1.3369                 1.3872                 1.5358
 Frc consts  --      0.7110                 0.7484                 0.9156
 IR Inten    --      0.0000                 1.0915                 0.0000

                     34                     35                     36
                      A                      A                      A
 Frequencies --   1029.1659              1044.1143              1057.7134
 Red. masses --      1.6198                 1.3637                 1.4401
 Frc consts  --      1.0109                 0.8759                 0.9493
 IR Inten    --      7.6543                 0.0190                 1.4189

                     37                     38                     39
                      A                      A                      A
 Frequencies --   1063.9039              1071.0579              1074.3766
 Red. masses --      1.5106                 1.5820                 1.3894
 Frc consts  --      1.0074                 1.0693                 0.9449
 IR Inten    --      0.0000                 0.0138                10.1597

                     40                     41                     42
                      A                      A                      A
 Frequencies --   1075.9258              1152.9807              1168.9640
 Red. masses --      1.5711                 2.2495                 5.1547
 Frc consts  --      1.0715                 1.7619                 4.1501
 IR Inten    --      4.2174                 0.0000                 0.1124

                     43                     44                     45
                      A                      A                      A
 Frequencies --   1185.5921              1210.4505              1245.0924
 Red. masses --      2.7220                 1.8528                 1.7780
 Frc consts  --      2.2543                 1.5994                 1.6240
 IR Inten    --      6.1200                 0.0000                 0.9341

                     46                     47                     48
                      A                      A                      A
 Frequencies --   1275.5697              1308.9813              1347.8386
 Red. masses --      1.6431                 1.8361                 8.2872
 Frc consts  --      1.5751                 1.8536                 8.8702
 IR Inten    --      0.0123                 4.3046                 0.0000

                     49                     50                     51
                      A                      A                      A
 Frequencies --   1357.8030              1417.2849              1420.2579
 Red. masses --      3.4083                 1.8286                 1.2404
 Frc consts  --      3.7022                 2.1641                 1.4742
 IR Inten    --      0.0031                 8.3088                 0.0657

                     52                     53                     54
                      A                      A                      A
 Frequencies --   1420.5780              1420.7457              1432.3511
 Red. masses --      1.2681                 2.5116                 1.2673
 Frc consts  --      1.5077                 2.9870                 1.5319
 IR Inten    --      0.8546                 0.0000                 0.0000

                     55                     56                     57
                      A                      A                      A
 Frequencies --   1436.5155              1482.9246              1491.9923
 Red. masses --      1.6876                 1.5732                 1.0494
 Frc consts  --      2.0518                 2.0384                 1.3763
 IR Inten    --     13.7161                 0.8002                 0.0001

                     58                     59                     60
                      A                      A                      A
 Frequencies --   1492.0328              1500.2065              1508.6689
 Red. masses --      1.0468                 1.0722                 1.6145
 Frc consts  --      1.3729                 1.4218                 2.1651
 IR Inten    --      0.3598                59.0407                 0.0895

                     61                     62                     63
                      A                      A                      A
 Frequencies --   1521.5663              1522.1348              1542.1775
 Red. masses --      1.0459                 1.0538                 1.0596
 Frc consts  --      1.4267                 1.4385                 1.4848
 IR Inten    --      0.0145                38.1750                 1.1381

                     64                     65                     66
                      A                      A                      A
 Frequencies --   1547.1077              1594.0417              1672.8945
 Red. masses --      1.0731                 5.4686                 5.0644
 Frc consts  --      1.5134                 8.1870                 8.3506
 IR Inten    --      0.0000                 1.0479                24.5853

                     67                     68                     69
                      A                      A                      A
 Frequencies --   1673.9632              1676.8809              3067.9698
 Red. masses --      5.9955                 7.6703                 1.0366
 Frc consts  --      9.8984                12.7076                 5.7488
 IR Inten    --      1.5992                 0.0000                 6.0199

                     70                     71                     72
                      A                      A                      A
 Frequencies --   3068.0660              3076.8465              3077.3337
 Red. masses --      1.0366                 1.0375                 1.0375
 Frc consts  --      5.7489                 5.7869                 5.7887
 IR Inten    --      5.5490               108.3246                 0.0001

                     73                     74                     75
                      A                      A                      A
 Frequencies --   3138.1202              3138.1806              3138.1824
 Red. masses --      1.1031                 1.1017                 1.1017
 Frc consts  --      6.4002                 6.3924                 6.3928
 IR Inten    --      0.4446                 0.3152                 1.5206

                     76                     77                     78
                      A                      A                      A
 Frequencies --   3138.4101              3148.7619              3148.7711
 Red. masses --      1.1030                 1.0991                 1.0991
 Frc consts  --      6.4008                 6.4208                 6.4205
 IR Inten    --     67.0827                 7.1702                 0.0012

                     79                     80                     81
                      A                      A                      A
 Frequencies --   3154.3007              3154.3934              3182.0299
 Red. masses --      1.1002                 1.1002                 1.0873
 Frc consts  --      6.4494                 6.4501                 6.4865
 IR Inten    --      0.3600                42.2484                27.3625

                     82                     83                     84
                      A                      A                      A
 Frequencies --   3182.2902              3199.8704              3200.3052
 Red. masses --      1.0878                 1.0948                 1.0945
 Frc consts  --      6.4903                 6.6048                 6.6046
 IR Inten    --      1.1894                47.4302                 0.0000

 - Thermochemistry -
 -------------------
 Temperature   298.150 Kelvin.  Pressure   1.00000 Atm.
 Atom     1 has atomic number  6 and mass  12.00000

 Molecular mass:   184.12520 amu.
 Principal axes and moments of inertia in atomic units:
                           1         2         3
     Eigenvalues --  1943.367152452.797274259.88968
           X            1.00000   0.00000   0.00000
           Y            0.00000   1.00000   0.00001
           Z            0.00000  -0.00001   1.00000
 This molecule is an asymmetric top.
 Rotational symmetry number  1.
 Warning -- assumption of classical behavior for rotation
           may cause significant error
 Rotational temperatures (Kelvin)      0.04457     0.03531     0.02033
 Rotational constants (GHZ):           0.92867     0.73579     0.42366
 Zero-point vibrational energy     688757.0 (Joules/Mol)
                                  164.61687 (Kcal/Mol)
 Warning -- explicit consideration of  20 degrees of freedom as
           vibrations may cause significant error
 Vibrational temperatures:     90.02   125.05   153.73   300.58   384.35
          (Kelvin)            387.94   424.77   450.97   470.51   488.33
                              516.57   524.24   537.52   604.08   666.82
                              669.53   708.94   709.41   714.44   859.10
                              900.12   938.74   957.28  1079.73  1125.38
                             1202.17  1210.08  1215.19  1224.38  1338.18
                             1366.98  1376.73  1447.31  1480.74  1502.25
                             1521.81  1530.72  1541.01  1545.79  1548.02
                             1658.88  1681.88  1705.80  1741.57  1791.41
                             1835.26  1883.33  1939.24  1953.57  2039.15
                             2043.43  2043.89  2044.13  2060.83  2066.82
                             2133.60  2146.64  2146.70  2158.46  2170.64
                             2189.19  2190.01  2218.85  2225.94  2293.47
                             2406.92  2408.46  2412.65  4414.12  4414.26
                             4426.89  4427.59  4515.05  4515.14  4515.14
                             4515.47  4530.36  4530.37  4538.33  4538.46
                             4578.23  4578.60  4603.89  4604.52

 Zero-point correction=                           0.262334 (Hartree/Particle)
 Thermal correction to Energy=                    0.274641
 Thermal correction to Enthalpy=                  0.275585
 Thermal correction to Gibbs Free Energy=         0.224814
 Sum of electronic and zero-point Energies=           -542.878019
 Sum of electronic and thermal Energies=              -542.865711
 Sum of electronic and thermal Enthalpies=            -542.864767
 Sum of electronic and thermal Free Energies=         -542.915538

                     E (Thermal)             CV                S
                      KCal/Mol        Cal/Mol-Kelvin    Cal/Mol-Kelvin
 Total                  172.340             50.684            106.857
 Electronic               0.000              0.000              0.000
 Translational            0.889              2.981             41.538
 Rotational               0.889              2.981             31.385
 Vibrational            170.563             44.722             33.934
 Vibration     1          0.597              1.972              4.374
 Vibration     2          0.601              1.958              3.728
 Vibration     3          0.606              1.944              3.325
 Vibration     4          0.642              1.827              2.053
 Vibration     5          0.672              1.733              1.615
 Vibration     6          0.674              1.729              1.599
 Vibration     7          0.689              1.683              1.444
 Vibration     8          0.701              1.648              1.344
 Vibration     9          0.711              1.621              1.275
 Vibration    10          0.719              1.597              1.215
 Vibration    11          0.734              1.557              1.126
 Vibration    12          0.738              1.546              1.103
 Vibration    13          0.745              1.526              1.065
 Vibration    14          0.783              1.427              0.892
 Vibration    15          0.821              1.331              0.756
 Vibration    16          0.823              1.327              0.751
 Vibration    17          0.848              1.266              0.677
 Vibration    18          0.849              1.265              0.676
 Vibration    19          0.852              1.258              0.667
 Vibration    20          0.955              1.038              0.455

 Optimization completed.
    -- Stationary point found.
 Normal termination of Gaussian 09 at Fri Jul  9 21:48:17 2021.
