 Gaussian 09, Revision D.01,
 Gaussian 09:  AM64L-G09RevD.01 24-Apr-2013

 ----------------------------------------------------------------------
 #P wB97XD/def2tzvp opt=(tight) freq integral(Grid=ultrafine) # SCF(Max
 Cycle=380) 5d 7f GFPrint
 ----------------------------------------------------------------------

 ---------------------------------------
 The PBEPBE optimization and frequencies
 ---------------------------------------
 Symbolic Z-matrix:
 Charge =  0 Multiplicity = 1

 SCF Done:  E(RwB97XD) =  -1229.13919373     A.U. after   15 cycles
 SCF Done:  E(RwB97XD) =  -1229.14052035     A.U. after   12 cycles
 SCF Done:  E(RwB97XD) =  -1229.14059034     A.U. after   10 cycles
 SCF Done:  E(RwB97XD) =  -1229.14059690     A.U. after    9 cycles
 SCF Done:  E(RwB97XD) =  -1229.14059733     A.U. after    7 cycles
 SCF Done:  E(RwB97XD) =  -1229.14059800     A.U. after    8 cycles
 SCF Done:  E(RwB97XD) =  -1229.14059882     A.U. after    9 cycles
 SCF Done:  E(RwB97XD) =  -1229.14059948     A.U. after    9 cycles
 SCF Done:  E(RwB97XD) =  -1229.14059972     A.U. after    9 cycles
 SCF Done:  E(RwB97XD) =  -1229.14059980     A.U. after    7 cycles
 SCF Done:  E(RwB97XD) =  -1229.14059984     A.U. after    7 cycles
 SCF Done:  E(RwB97XD) =  -1229.14059984     A.U. after    5 cycles
 SCF Done:  E(RwB97XD) =  -1229.14059984     A.U. after    5 cycles
 SCF Done:  E(RwB97XD) =  -1229.14059984     A.U. after    4 cycles
 SCF Done:  E(RwB97XD) =  -1229.14059984     A.U. after    4 cycles
 SCF Done:  E(RwB97XD) =  -1229.14059984     A.U. after    4 cycles
 SCF Done:  E(RwB97XD) =  -1229.14059984     A.U. after    3 cycles
 SCF Done:  E(RwB97XD) =  -1229.14059984     A.U. after    3 cycles
 SCF Done:  E(RwB97XD) =  -1229.14059984     A.U. after    3 cycles
 Optimization completed.
    -- Stationary point found.

 1\1\GINC-DS505-05\FOpt\RwB97XD\def2TZVP\C32H16\MINENKY\25-Jul-2019\0\\
 #P wB97XD/def2tzvp opt=(tight) freq integral(Grid=ultrafine) # SCF(Max
 Cycle=380) 5d 7f GFPrint\\The PBEPBE optimization and frequencies\\0,1
 \C,-2.7494385299,0.2838446982,-0.0233156812\C,-2.2221919299,1.55870981
 8,-0.0410311006\C,1.68294919,-1.5887437984,0.0252884344\C,2.2541070465
 ,-0.2907333125,0.0378654754\C,3.6540277726,-0.1082843364,0.0675628446\
 C,4.1955585479,1.1421118249,0.0695171626\C,3.3719926211,2.2870080125,0
 .0426462967\C,3.9266289281,3.6033172355,0.0422612823\C,3.1316002762,4.

 Normal termination of Gaussian 09 at Thu Jul 25 05:15:49 2019.

 ---------------------------------------------------------------------
 #P Geom=AllCheck Guess=TCheck SCRF=Check GenChk RwB97XD/def2TZVP Freq
 ---------------------------------------------------------------------

 Structure from the checkpoint file:  "m1_00_120864-22-4-C32H16_B3LYP-D3.chk"
 ---------------------------------------
 The PBEPBE optimization and frequencies
 ---------------------------------------
 Charge =  0 Multiplicity = 1

                         Standard orientation:
 ---------------------------------------------------------------------
 Center     Atomic      Atomic             Coordinates (Angstroms)
 Number     Number       Type             X           Y           Z
 ---------------------------------------------------------------------
      1          6           0       -0.932683   -2.601722    0.025528
      2          6           0        0.444830   -2.677448    0.043071
      3          6           0       -0.704959    2.204558   -0.027567
      4          6           0        0.712403    2.158394   -0.040351
      5          6           0        1.482148    3.341814   -0.071280
      6          6           0        2.843768    3.289530   -0.073426
      7          6           0        3.520086    2.051957   -0.045528
      8          6           0        4.946809    1.982995   -0.045331
      9          6           0        5.585818    0.794958   -0.018147
     10          6           0        4.856942   -0.435566    0.009805
     11          6           0        5.511471   -1.670585    0.037332
     12          6           0        4.784081   -2.838016    0.062714
     13          6           0        3.394597   -2.804249    0.060163
     14          6           0        1.234838   -1.537858    0.027754
     15          6           0        0.582157   -0.282921    0.007082
     16          6           0        1.357820    0.915951   -0.015017
     17          6           0        2.775216    0.861698   -0.017299
     18          6           0        3.442722   -0.399075    0.008994
     19          6           0        2.698860   -1.602655    0.033240
     20          6           0       -0.836194   -0.205264    0.004552
     21          6           0       -1.602496   -1.386826   -0.002742
     22          6           0       -1.478063    1.086248    0.006775
     23          6           0       -3.073389   -1.317152   -0.041682
     24          6           0       -3.858239   -2.446021   -0.113763
     25          6           0       -5.258477   -2.374208   -0.128237
     26          6           0       -5.885204   -1.165773   -0.066012
     27          6           0       -2.951391    1.158530    0.046707
     28          6           0       -3.710371   -0.044265    0.001262
     29          6           0       -5.128641    0.025005    0.000751
     30          6           0       -5.765003    1.282422    0.068012
     31          6           0       -5.022506    2.424355    0.135425
     32          6           0       -3.623459    2.358779    0.124256
     33          1           0       -1.486506   -3.529036    0.038949
     34          1           0        0.897529   -3.658214    0.066041
     35          1           0       -1.157596    3.186527   -0.046351
     36          1           0        0.971103    4.297089   -0.091710
     37          1           0        3.426195    4.202973   -0.096057
     38          1           0        5.508540    2.909378   -0.067080
     39          1           0        6.668410    0.751508   -0.017554
     40          1           0        6.594529   -1.696477    0.038395
     41          1           0        5.292642   -3.793484    0.084422
     42          1           0        2.862341   -3.744381    0.079943
     43          1           0       -3.404651   -3.425250   -0.163289
     44          1           0       -5.835611   -3.288293   -0.185393
     45          1           0       -6.966428   -1.099543   -0.068999
     46          1           0       -6.847510    1.322674    0.069453
     47          1           0       -5.507613    3.390260    0.195663
     48          1           0       -3.076330    3.288738    0.181316
 ---------------------------------------------------------------------

 SCF Done:  E(RwB97XD) =  -1229.14059984     A.U. after    1 cycles

 The electronic state is 1-A.
 Alpha  occ. eigenvalues --  -10.30614 -10.30572 -10.30565 -10.30555 -10.30538
 Alpha  occ. eigenvalues --  -10.30517 -10.30478 -10.30466 -10.30274 -10.30203
 Alpha  occ. eigenvalues --  -10.30162 -10.30107 -10.30103 -10.30082 -10.30067
 Alpha  occ. eigenvalues --  -10.30029 -10.29248 -10.29241 -10.29167 -10.29158
 Alpha  occ. eigenvalues --  -10.29157 -10.29145 -10.29120 -10.29112 -10.29103
 Alpha  occ. eigenvalues --  -10.29099 -10.29075 -10.29064 -10.29049 -10.29041
 Alpha  occ. eigenvalues --  -10.29010 -10.28996  -1.01530  -0.99794  -0.97519
 Alpha  occ. eigenvalues --   -0.96828  -0.94336  -0.92999  -0.92414  -0.90065
 Alpha  occ. eigenvalues --   -0.88746  -0.87012  -0.85733  -0.84694  -0.84016
 Alpha  occ. eigenvalues --   -0.83434  -0.82652  -0.79363  -0.75153  -0.74198
 Alpha  occ. eigenvalues --   -0.74038  -0.73293  -0.72206  -0.71197  -0.69343
 Alpha  occ. eigenvalues --   -0.68485  -0.65262  -0.64189  -0.63773  -0.62273
 Alpha  occ. eigenvalues --   -0.61280  -0.60573  -0.60165  -0.58836  -0.57579
 Alpha  occ. eigenvalues --   -0.56634  -0.55385  -0.54722  -0.54680  -0.53695
 Alpha  occ. eigenvalues --   -0.52954  -0.52735  -0.51624  -0.51240  -0.50894
 Alpha  occ. eigenvalues --   -0.50768  -0.50633  -0.50016  -0.49290  -0.48939
 Alpha  occ. eigenvalues --   -0.47701  -0.47011  -0.46828  -0.46602  -0.46067
 Alpha  occ. eigenvalues --   -0.45724  -0.45332  -0.44566  -0.43999  -0.42423
 Alpha  occ. eigenvalues --   -0.42075  -0.41777  -0.41432  -0.39696  -0.39596
 Alpha  occ. eigenvalues --   -0.38558  -0.37290  -0.35280  -0.33622  -0.32638
 Alpha  occ. eigenvalues --   -0.32129  -0.30302  -0.29291  -0.24446
 Alpha virt. eigenvalues --   -0.03294   0.01404   0.02319   0.03088   0.03920
 Alpha virt. eigenvalues --    0.05398   0.07109   0.09014   0.11490   0.11898
 Alpha virt. eigenvalues --    0.12423   0.12675   0.13651   0.13854   0.14121

 Mulliken charges:
               1
     1  C   -0.250849
     2  C   -0.238231
     3  C   -0.328693
     4  C    0.209099
     5  C   -0.209544
     6  C   -0.174726
     7  C    0.166143
     8  C   -0.173000
     9  C   -0.176719
    10  C    0.164743
    11  C   -0.191159
    12  C   -0.082737
    13  C   -0.193853
    14  C    0.171644
    15  C    0.050724
    16  C   -0.003417
    17  C   -0.020081
    18  C   -0.117253
    19  C    0.103010
    20  C    0.005196
    21  C    0.191646
    22  C    0.181631
    23  C    0.095979
    24  C   -0.177602
    25  C   -0.080831
    26  C   -0.201811
    27  C    0.058598
    28  C   -0.162145
    29  C    0.188174
    30  C   -0.193421
    31  C   -0.088635
    32  C   -0.162738
    33  H    0.080472
    34  H    0.083854
    35  H    0.086709
    36  H    0.103899
    37  H    0.104826
    38  H    0.104976
    39  H    0.105710
    40  H    0.107633
    41  H    0.112388
    42  H    0.107881
    43  H    0.101660
    44  H    0.112217
    45  H    0.107208
    46  H    0.107531
    47  H    0.112247
    48  H    0.101646
 Sum of Mulliken charges =   0.00000

 Dipole moment (field-independent basis, Debye):
    X=             -0.0208    Y=             -0.0442    Z=              0.0040  Tot=              0.0490
 Quadrupole moment (field-independent basis, Debye-Ang):
   XX=           -155.0268   YY=           -154.8762   ZZ=           -191.8029
   XY=             -0.1332   XZ=              0.0128   YZ=              0.1761

  Exact polarizability: 676.946   1.422 436.183   0.253   0.688 155.343
 Approx polarizability: 657.510   6.454 569.791   0.356   0.683 222.360

                      1                      2                      3
                      A                      A                      A
 Frequencies --     11.8858                38.5164                61.0139
 Red. masses --      5.0398                 5.6707                 4.6393
 Frc consts  --      0.0004                 0.0050                 0.0102
 IR Inten    --      0.0005                 0.2774                 0.0400

                      4                      5                      6
                      A                      A                      A
 Frequencies --    104.9447               135.3611               142.8540
 Red. masses --      4.5364                 4.9703                 4.2399
 Frc consts  --      0.0294                 0.0537                 0.0510
 IR Inten    --      0.4133                 2.2013                 1.5270

                      7                      8                      9
                      A                      A                      A
 Frequencies --    156.6787               187.2203               211.2993
 Red. masses --      5.4879                 4.3157                 4.0334
 Frc consts  --      0.0794                 0.0891                 0.1061
 IR Inten    --      0.3575                 0.7904                 1.9337

                     10                     11                     12
                      A                      A                      A
 Frequencies --    229.7531               248.7969               276.1942
 Red. masses --      3.7187                 7.1639                 5.4651
 Frc consts  --      0.1157                 0.2613                 0.2456
 IR Inten    --      1.0469                 0.0432                 2.5227

                     13                     14                     15
                      A                      A                      A
 Frequencies --    292.2956               297.6485               324.3875
 Red. masses --      6.1973                 4.2469                 4.3182
 Frc consts  --      0.3120                 0.2217                 0.2677
 IR Inten    --      0.0825                 0.3197                 0.0171

                     16                     17                     18
                      A                      A                      A
 Frequencies --    373.8397               388.1159               396.2098
 Red. masses --      5.2634                 5.7565                 7.3572
 Frc consts  --      0.4334                 0.5109                 0.6805
 IR Inten    --      0.1021                 0.2929                 0.0518

                     19                     20                     21
                      A                      A                      A
 Frequencies --    431.8952               445.4341               452.3971
 Red. masses --      5.3662                 4.4082                 7.3177
 Frc consts  --      0.5898                 0.5153                 0.8824
 IR Inten    --      0.3333                 0.2214                 0.0883

                     22                     23                     24
                      A                      A                      A
 Frequencies --    470.2217               477.0249               478.3525
 Red. masses --      3.7307                 4.7819                 3.2960
 Frc consts  --      0.4860                 0.6411                 0.4444
 IR Inten    --      0.0881                 3.6508                 0.1807

                     25                     26                     27
                      A                      A                      A
 Frequencies --    503.5966               506.1645               526.9552
 Red. masses --      6.2880                 4.2445                 5.3136
 Frc consts  --      0.9396                 0.6407                 0.8693
 IR Inten    --      3.4309                 0.7095                 2.2391

                     28                     29                     30
                      A                      A                      A
 Frequencies --    535.3967               545.3214               555.5117
 Red. masses --      3.4535                 6.6801                 6.4107
 Frc consts  --      0.5833                 1.1704                 1.1656
 IR Inten    --      2.8383                 1.0567                 0.0523

                     31                     32                     33
                      A                      A                      A
 Frequencies --    564.8879               585.9212               587.7001
 Red. masses --      6.5356                 3.4844                 6.1810
 Frc consts  --      1.2287                 0.7048                 1.2578
 IR Inten    --      0.2331                 0.5078                 1.1110

                     34                     35                     36
                      A                      A                      A
 Frequencies --    592.3537               620.2212               643.3683
 Red. masses --      4.5043                 3.8621                 8.1737
 Frc consts  --      0.9312                 0.8753                 1.9934
 IR Inten    --      7.4720                 2.6344                 0.3382

                     37                     38                     39
                      A                      A                      A
 Frequencies --    645.6377               671.0020               679.4928
 Red. masses --      4.3288                 3.0401                 7.1960
 Frc consts  --      1.0631                 0.8065                 1.9575
 IR Inten    --      0.1569                 9.9115                 0.3244

                     40                     41                     42
                      A                      A                      A
 Frequencies --    684.1597               701.2409               729.1330
 Red. masses --      2.7382                 5.2744                 6.4014
 Frc consts  --      0.7551                 1.5281                 2.0051
 IR Inten    --      3.2863                 0.5351                 0.4343

                     43                     44                     45
                      A                      A                      A
 Frequencies --    734.4127               769.8186               772.9004
 Red. masses --      2.9159                 5.9315                 2.2203
 Frc consts  --      0.9266                 2.0711                 0.7815
 IR Inten    --      0.0085                 1.8736                25.9081

                     46                     47                     48
                      A                      A                      A
 Frequencies --    785.0611               792.8614               798.3481
 Red. masses --      1.3066                 1.4556                 1.4948
 Frc consts  --      0.4744                 0.5391                 0.5613
 IR Inten    --      5.7101                 0.2095                45.5548

                     49                     50                     51
                      A                      A                      A
 Frequencies --    802.2061               816.8915               832.7196
 Red. masses --      5.9094                 5.3054                 1.9526
 Frc consts  --      2.2406                 2.0859                 0.7977
 IR Inten    --     16.5830                 2.2881                 7.3739

                     52                     53                     54
                      A                      A                      A
 Frequencies --    844.4023               847.7858               858.6008
 Red. masses --      5.9498                 1.7350                 5.2426
 Frc consts  --      2.4995                 0.7347                 2.2771
 IR Inten    --      4.2603                54.2973                 2.4270

                     55                     56                     57
                      A                      A                      A
 Frequencies --    859.3456               872.0134               894.7429
 Red. masses --      5.4988                 1.8409                 4.3305
 Frc consts  --      2.3925                 0.8248                 2.0426
 IR Inten    --      2.1666                42.5732                13.4148

                     58                     59                     60
                      A                      A                      A
 Frequencies --    910.1224               917.0142               927.6173
 Red. masses --      3.4959                 1.5044                 1.5293
 Frc consts  --      1.7061                 0.7454                 0.7753
 IR Inten    --      4.8419                 0.2386                 8.1392

                     61                     62                     63
                      A                      A                      A
 Frequencies --    934.3590               937.6796               953.3688
 Red. masses --      2.1076                 1.8056                 5.2481
 Frc consts  --      1.0841                 0.9354                 2.8105
 IR Inten    --      9.8682                 0.3265                 8.3820

                     64                     65                     66
                      A                      A                      A
 Frequencies --    965.4968               968.0812               982.9955
 Red. masses --      1.4045                 5.8246                 5.0040
 Frc consts  --      0.7714                 3.2162                 2.8489
 IR Inten    --      0.1403                 0.3434                 0.0894

                     67                     68                     69
                      A                      A                      A
 Frequencies --    983.1958               988.0919               988.8205
 Red. masses --      1.3734                 1.3093                 1.3036
 Frc consts  --      0.7822                 0.7531                 0.7510
 IR Inten    --      0.0806                 0.1312                 0.1625

                     70                     71                     72
                      A                      A                      A
 Frequencies --    995.9469               997.9204              1064.4519
 Red. masses --      1.3091                 1.3246                 4.3849
 Frc consts  --      0.7650                 0.7772                 2.9273
 IR Inten    --      0.5894                 0.0122                 2.9657

                     73                     74                     75
                      A                      A                      A
 Frequencies --   1076.5714              1092.9302              1124.4635
 Red. masses --      3.9636                 3.9795                 1.9768
 Frc consts  --      2.7066                 2.8007                 1.4727
 IR Inten    --      4.8501                 1.4232                 3.5187

                     76                     77                     78
                      A                      A                      A
 Frequencies --   1130.7172              1135.5842              1173.0956
 Red. masses --      1.8771                 2.2979                 1.4268
 Frc consts  --      1.4140                 1.7459                 1.1569
 IR Inten    --      2.2706                 1.9024                 0.3988

                     79                     80                     81
                      A                      A                      A
 Frequencies --   1175.5383              1179.9010              1194.2103
 Red. masses --      1.4256                 1.4410                 1.6440
 Frc consts  --      1.1607                 1.1820                 1.3814
 IR Inten    --      1.5214                 5.2529                 1.0036

                     82                     83                     84
                      A                      A                      A
 Frequencies --   1204.9991              1226.2815              1230.7723
 Red. masses --      1.3290                 1.5847                 2.4842
 Frc consts  --      1.1369                 1.4040                 2.2171
 IR Inten    --      1.4527                 0.1918                 0.8390

                     85                     86                     87
                      A                      A                      A
 Frequencies --   1234.3227              1245.5032              1247.2484
 Red. masses --      1.6196                 1.5330                 2.0882
 Frc consts  --      1.4539                 1.4011                 1.9140
 IR Inten    --      1.7711                 7.4921                 0.2852

                     88                     89                     90
                      A                      A                      A
 Frequencies --   1263.3951              1266.7641              1287.6708
 Red. masses --      1.7712                 1.7637                 2.2053
 Frc consts  --      1.6657                 1.6675                 2.1544
 IR Inten    --      1.8176                 2.4793                 2.5350

                     91                     92                     93
                      A                      A                      A
 Frequencies --   1311.6454              1317.8008              1337.4793
 Red. masses --      2.9948                 2.9327                 2.0905
 Frc consts  --      3.0357                 3.0007                 2.2033
 IR Inten    --      0.0119                 2.0857                 0.1068

                     94                     95                     96
                      A                      A                      A
 Frequencies --   1342.0792              1371.0912              1377.2609
 Red. masses --      2.9496                 4.1484                 3.5209
 Frc consts  --      3.1302                 4.5948                 3.9350
 IR Inten    --      6.3968                 2.2167                16.8856

                     97                     98                     99
                      A                      A                      A
 Frequencies --   1380.4361              1401.7112              1416.6928
 Red. masses --      4.7282                 3.2105                 5.6778
 Frc consts  --      5.3086                 3.7165                 6.7140
 IR Inten    --      1.7581                26.4563                 2.1958

                    100                    101                    102
                      A                      A                      A
 Frequencies --   1430.1227              1438.6391              1445.9341
 Red. masses --      4.8249                 5.8183                 3.3412
 Frc consts  --      5.8142                 7.0949                 4.1158
 IR Inten    --      1.3218                 4.6924                17.3671

                    103                    104                    105
                      A                      A                      A
 Frequencies --   1458.4928              1466.8174              1478.8056
 Red. masses --      3.7161                 2.8377                 2.4111
 Frc consts  --      4.6575                 3.5973                 3.1066
 IR Inten    --      1.9845                 2.3340                 1.8618

                    106                    107                    108
                      A                      A                      A
 Frequencies --   1495.5220              1500.5615              1523.1458
 Red. masses --      3.4422                 3.2356                 2.9216
 Frc consts  --      4.5360                 4.2925                 3.9935
 IR Inten    --      1.1425                25.3952                 2.4835

                    109                    110                    111
                      A                      A                      A
 Frequencies --   1535.8847              1563.9545              1568.5860
 Red. masses --      4.4999                 4.4737                 4.5000
 Frc consts  --      6.2542                 6.4471                 6.5235
 IR Inten    --      0.8082                 0.3174                 2.3925

                    112                    113                    114
                      A                      A                      A
 Frequencies --   1579.1036              1589.9899              1646.1886
 Red. masses --      4.4489                 5.7387                 5.1413
 Frc consts  --      6.5362                 8.5477                 8.2089
 IR Inten    --      5.1351                 3.9724                 0.2970

                    115                    116                    117
                      A                      A                      A
 Frequencies --   1655.6269              1658.2717              1668.9162
 Red. masses --      6.8189                 6.9219                 5.3941
 Frc consts  --     11.0126                11.2147                 8.8519
 IR Inten    --     14.5022                 2.0656                 3.3665

                    118                    119                    120
                      A                      A                      A
 Frequencies --   1673.1294              1684.9933              1688.7211
 Red. masses --      6.7257                 7.7067                 6.5107
 Frc consts  --     11.0930                12.8919                10.9394
 IR Inten    --      8.0302                16.3986                 1.5425

                    121                    122                    123
                      A                      A                      A
 Frequencies --   1701.5020              1710.8428              3187.8020
 Red. masses --      6.9790                 7.8198                 1.0867
 Frc consts  --     11.9045                13.4854                 6.5065
 IR Inten    --      7.6037                 2.0052                 2.1630

                    124                    125                    126
                      A                      A                      A
 Frequencies --   3188.8370              3192.9829              3193.0279
 Red. masses --      1.0867                 1.0871                 1.0870
 Frc consts  --      6.5105                 6.5298                 6.5295
 IR Inten    --      3.1868                 0.0447                 2.6124

                    127                    128                    129
                      A                      A                      A
 Frequencies --   3194.4428              3206.1627              3207.7773
 Red. masses --      1.0866                 1.0965                 1.0958
 Frc consts  --      6.5331                 6.6408                 6.6435
 IR Inten    --      0.7204                 8.5582                20.7761

                    130                    131                    132
                      A                      A                      A
 Frequencies --   3208.7990              3208.9199              3211.0900
 Red. masses --      1.0927                 1.0929                 1.0935
 Frc consts  --      6.6288                 6.6304                 6.6434
 IR Inten    --     71.6827                21.1362                19.4276

                    133                    134                    135
                      A                      A                      A
 Frequencies --   3215.7947              3216.9064              3226.0070
 Red. masses --      1.0933                 1.0916                 1.0953
 Frc consts  --      6.6615                 6.6556                 6.7159
 IR Inten    --      1.0718                 2.6211                 5.1481

                    136                    137                    138
                      A                      A                      A
 Frequencies --   3233.2130              3234.9628              3242.4575
 Red. masses --      1.0904                 1.0901                 1.0913
 Frc consts  --      6.7162                 6.7212                 6.7597
 IR Inten    --     13.3701                 2.6950                20.4094

 - Thermochemistry -
 -------------------
 Temperature   298.150 Kelvin.  Pressure   1.00000 Atm.
 Atom     1 has atomic number  6 and mass  12.00000

 Molecular mass:   400.12520 amu.
 Principal axes and moments of inertia in atomic units:
                           1         2         3
     Eigenvalues --  5388.50098********************
           X            1.00000  -0.00090   0.00002
           Y            0.00090   1.00000   0.00025
           Z           -0.00002  -0.00025   1.00000
 This molecule is an asymmetric top.
 Rotational symmetry number  1.
 Warning -- assumption of classical behavior for rotation
           may cause significant error
 Rotational temperatures (Kelvin)      0.01607     0.00458     0.00356
 Rotational constants (GHZ):           0.33492     0.09539     0.07428
 Zero-point vibrational energy     990428.9 (Joules/Mol)
                                  236.71818 (Kcal/Mol)
 Warning -- explicit consideration of  35 degrees of freedom as
           vibrations may cause significant error
 Vibrational temperatures:     17.10    55.42    87.79   150.99   194.75
          (Kelvin)            205.53   225.43   269.37   304.01   330.56
                              357.96   397.38   420.55   428.25   466.72
                              537.87   558.41   570.06   621.40   640.88
                              650.90   676.54   686.33   688.24   724.56
                              728.26   758.17   770.32   784.59   799.26
                              812.75   843.01   845.57   852.26   892.36
                              925.66   928.93   965.42   977.64   984.35
                             1008.93  1049.06  1056.65  1107.60  1112.03
                             1129.53  1140.75  1148.64  1154.19  1175.32
                             1198.10  1214.91  1219.77  1235.33  1236.41
                             1254.63  1287.33  1309.46  1319.38  1334.63
                             1344.33  1349.11  1371.68  1389.13  1392.85
                             1414.31  1414.60  1421.64  1422.69  1432.94
                             1435.78  1531.51  1548.94  1572.48  1617.85
                             1626.85  1633.85  1687.82  1691.34  1697.61
                             1718.20  1733.72  1764.34  1770.80  1775.91
                             1792.00  1794.51  1817.74  1822.59  1852.67
                             1887.16  1896.02  1924.33  1930.95  1972.69
                             1981.57  1986.14  2016.75  2038.30  2057.63
                             2069.88  2080.37  2098.44  2110.42  2127.67
                             2151.72  2158.97  2191.46  2209.79  2250.18
                             2256.84  2271.97  2287.64  2368.50  2382.07
                             2385.88  2401.20  2407.26  2424.33  2429.69
                             2448.08  2461.52  4586.53  4588.02  4593.98
                             4594.05  4596.08  4612.95  4615.27  4616.74
                             4616.91  4620.04  4626.81  4628.41  4641.50
                             4651.87  4654.38  4665.17

 Zero-point correction=                           0.377234 (Hartree/Particle)
 Thermal correction to Energy=                    0.396803
 Thermal correction to Enthalpy=                  0.397747
 Thermal correction to Gibbs Free Energy=         0.329189
 Sum of electronic and zero-point Energies=          -1228.763365
 Sum of electronic and thermal Energies=             -1228.743797
 Sum of electronic and thermal Enthalpies=           -1228.742853
 Sum of electronic and thermal Free Energies=        -1228.811410

                     E (Thermal)             CV                S
                      KCal/Mol        Cal/Mol-Kelvin    Cal/Mol-Kelvin
 Total                  248.998             86.443            144.292
 Electronic               0.000              0.000              0.000
 Translational            0.889              2.981             43.851
 Rotational               0.889              2.981             36.158
 Vibrational            247.220             80.481             64.282
 Vibration     1          0.593              1.987              7.668
 Vibration     2          0.594              1.981              5.334
 Vibration     3          0.597              1.973              4.424
 Vibration     4          0.605              1.945              3.360
 Vibration     5          0.613              1.918              2.868
 Vibration     6          0.616              1.910              2.765
 Vibration     7          0.620              1.895              2.590
 Vibration     8          0.632              1.857              2.255
 Vibration     9          0.643              1.824              2.032
 Vibration    10          0.652              1.796              1.881
 Vibration    11          0.662              1.765              1.739
 Vibration    12          0.678              1.717              1.557
 Vibration    13          0.688              1.688              1.461
 Vibration    14          0.691              1.678              1.430
 Vibration    15          0.709              1.627              1.288
 Vibration    16          0.745              1.526              1.064
 Vibration    17          0.756              1.496              1.007
 Vibration    18          0.763              1.478              0.977
 Vibration    19          0.793              1.401              0.852
 Vibration    20          0.805              1.371              0.810
 Vibration    21          0.811              1.356              0.789
 Vibration    22          0.827              1.316              0.737
 Vibration    23          0.834              1.301              0.718
 Vibration    24          0.835              1.298              0.715
 Vibration    25          0.859              1.242              0.649
 Vibration    26          0.861              1.236              0.643
 Vibration    27          0.882              1.190              0.594
 Vibration    28          0.890              1.172              0.575
 Vibration    29          0.900              1.150              0.554
 Vibration    30          0.911              1.128              0.533
 Vibration    31          0.921              1.107              0.514
 Vibration    32          0.943              1.062              0.475
 Vibration    33          0.945              1.058              0.471
 Vibration    34          0.950              1.048              0.463
 Vibration    35          0.980              0.989              0.416

 1\1\GINC-DS505-05\Freq\RwB97XD\def2TZVP\C32H16\MINENKY\26-Jul-2019\0\\
 #P Geom=AllCheck Guess=TCheck SCRF=Check GenChk RwB97XD/def2TZVP Freq\
 \The PBEPBE optimization and frequencies\\0,1\C,-2.7494385299,0.283844
 6982,-0.0233156812\C,-2.2221919299,1.558709818,-0.0410311006\C,1.68294
 919,-1.5887437984,0.0252884344\C,2.2541070465,-0.2907333125,0.03786547
 54\C,3.6540277726,-0.1082843364,0.0675628446\C,4.1955585479,1.14211182
 49,0.0695171626\C,3.3719926211,2.2870080125,0.0426462967\C,3.926628928
 1,3.6033172355,0.0422612823\C,3.1316002762,4.6931558807,0.0160647561\C

 Normal termination of Gaussian 09 at Fri Jul 26 11:39:56 2019.
