 Gaussian 09, Revision D.01,
 Gaussian 09:  AM64L-G09RevD.01 24-Apr-2013

 ----------------------------------------------------------------------
 #P wB97XD/def2tzvp opt=(tight) freq integral(Grid=ultrafine) # SCF(Max
 Cycle=380) 5d 7f GFPrint
 ----------------------------------------------------------------------

 ---------------------------------------
 The PBEPBE optimization and frequencies
 ---------------------------------------
 Symbolic Z-matrix:
 Charge =  0 Multiplicity = 1

 SCF Done:  E(RwB97XD) =  -1230.29757126     A.U. after   14 cycles
 SCF Done:  E(RwB97XD) =  -1230.30127831     A.U. after   12 cycles
 SCF Done:  E(RwB97XD) =  -1230.30138388     A.U. after   10 cycles
 SCF Done:  E(RwB97XD) =  -1230.30139441     A.U. after    9 cycles
 SCF Done:  E(RwB97XD) =  -1230.30139498     A.U. after    7 cycles
 SCF Done:  E(RwB97XD) =  -1230.30139506     A.U. after    6 cycles
 SCF Done:  E(RwB97XD) =  -1230.30139511     A.U. after    7 cycles
 SCF Done:  E(RwB97XD) =  -1230.30139513     A.U. after    6 cycles
 SCF Done:  E(RwB97XD) =  -1230.30139513     A.U. after    5 cycles
 SCF Done:  E(RwB97XD) =  -1230.30139513     A.U. after    3 cycles
 SCF Done:  E(RwB97XD) =  -1230.30139513     A.U. after    4 cycles
 SCF Done:  E(RwB97XD) =  -1230.30139513     A.U. after    4 cycles
 Optimization completed.
    -- Stationary point found.
 Normal termination of Gaussian 09 at Sat Jul 27 20:58:23 2019.

 ---------------------------------------------------------------------
 #P Geom=AllCheck Guess=TCheck SCRF=Check GenChk RwB97XD/def2TZVP Freq
 ---------------------------------------------------------------------

 Structure from the checkpoint file:  "m1_00_313-71-3-C32H18_wB97XD.chk"
 ---------------------------------------
 The PBEPBE optimization and frequencies
 ---------------------------------------
 Charge =  0 Multiplicity = 1

                         Standard orientation:
 ---------------------------------------------------------------------
 Center     Atomic      Atomic             Coordinates (Angstroms)
 Number     Number       Type             X           Y           Z
 ---------------------------------------------------------------------
      1          6           0        6.471219    0.672197   -0.000027
      2          6           0        6.471219   -0.672196   -0.000020
      3          6           0        5.243944   -1.411632   -0.000005
      4          6           0        4.011108   -0.719885   -0.000001
      5          6           0        4.011107    0.719885   -0.000005
      6          6           0        5.243944    1.411632   -0.000017
      7          6           0        2.800249    1.448256    0.000006
      8          6           0        1.517723    0.723216    0.000012
      9          6           0        1.517723   -0.723216    0.000007
     10          6           0        2.800249   -1.448256    0.000011
     11          6           0        0.323050   -1.383863   -0.000003
     12          6           0       -0.928385   -0.715904   -0.000001
     13          6           0       -0.928385    0.715904    0.000013
     14          6           0        0.323050    1.383863    0.000017
     15          6           0       -2.133408    1.397940    0.000019
     16          6           0       -3.357863    0.719002    0.000010
     17          6           0       -3.357863   -0.719002   -0.000007
     18          6           0       -2.133408   -1.397940   -0.000012
     19          6           0       -4.589276   -1.397166   -0.000019
     20          6           0       -5.790209   -0.719778   -0.000013
     21          6           0       -5.790209    0.719778    0.000006
     22          6           0       -4.589276    1.397166    0.000017
     23          6           0       -7.050212    1.402076    0.000013
     24          6           0       -8.214505    0.714491    0.000001
     25          6           0       -8.214505   -0.714491   -0.000019
     26          6           0       -7.050212   -1.402076   -0.000026
     27          6           0        2.862081    2.834294    0.000008
     28          6           0        4.075603    3.511028   -0.000005
     29          6           0        5.256831    2.809601   -0.000018
     30          6           0        5.256831   -2.809601    0.000007
     31          6           0        4.075603   -3.511028    0.000025
     32          6           0        2.862081   -2.834294    0.000028
     33          1           0        7.402913    1.225263   -0.000038
     34          1           0        7.402913   -1.225263   -0.000026
     35          1           0        0.292647   -2.464480   -0.000014
     36          1           0        0.292647    2.464480    0.000021
     37          1           0       -2.132489    2.482488    0.000031
     38          1           0       -2.132489   -2.482488   -0.000024
     39          1           0       -4.589599   -2.481744   -0.000033
     40          1           0       -4.589599    2.481744    0.000031
     41          1           0       -7.048648    2.485711    0.000028
     42          1           0       -9.159228    1.243238    0.000007
     43          1           0       -9.159228   -1.243238   -0.000029
     44          1           0       -7.048648   -2.485711   -0.000041
     45          1           0        1.955836    3.421988    0.000018
     46          1           0        4.083373    4.593502   -0.000004
     47          1           0        6.207497    3.329114   -0.000028
     48          1           0        6.207497   -3.329113    0.000004
     49          1           0        4.083373   -4.593502    0.000038
     50          1           0        1.955837   -3.421988    0.000045
 ---------------------------------------------------------------------

 SCF Done:  E(RwB97XD) =  -1230.30139513     A.U. after    1 cycles

 The electronic state is 1-A.
 Alpha  occ. eigenvalues --  -10.30709 -10.30671 -10.30542 -10.30540 -10.30314
 Alpha  occ. eigenvalues --  -10.30275 -10.30255 -10.30216 -10.30158 -10.30131
 Alpha  occ. eigenvalues --  -10.30119 -10.30090 -10.30080 -10.30079 -10.29339
 Alpha  occ. eigenvalues --  -10.29336 -10.29266 -10.29263 -10.29202 -10.29199
 Alpha  occ. eigenvalues --  -10.29198 -10.29192 -10.29180 -10.29114 -10.29096
 Alpha  occ. eigenvalues --  -10.29096 -10.29095 -10.29080 -10.29038 -10.29038
 Alpha  occ. eigenvalues --  -10.28988 -10.28988  -1.00708  -0.99566  -0.97653
 Alpha  occ. eigenvalues --   -0.96304  -0.95003  -0.92172  -0.90394  -0.89944
 Alpha  occ. eigenvalues --   -0.88624  -0.88033  -0.86602  -0.84518  -0.84241
 Alpha  occ. eigenvalues --   -0.82798  -0.81772  -0.79318  -0.76906  -0.73014
 Alpha  occ. eigenvalues --   -0.72813  -0.72670  -0.72540  -0.70450  -0.69199
 Alpha  occ. eigenvalues --   -0.68415  -0.68019  -0.64283  -0.63573  -0.62958
 Alpha  occ. eigenvalues --   -0.61329  -0.60556  -0.59446  -0.58280  -0.57502
 Alpha  occ. eigenvalues --   -0.56898  -0.55903  -0.54615  -0.54262  -0.54143
 Alpha  occ. eigenvalues --   -0.52646  -0.52645  -0.51870  -0.51774  -0.51264
 Alpha  occ. eigenvalues --   -0.51052  -0.50463  -0.50444  -0.50193  -0.49105
 Alpha  occ. eigenvalues --   -0.48760  -0.48016  -0.47911  -0.46590  -0.46354
 Alpha  occ. eigenvalues --   -0.45468  -0.45310  -0.44871  -0.44688  -0.42869
 Alpha  occ. eigenvalues --   -0.42650  -0.41195  -0.41077  -0.40364  -0.40145
 Alpha  occ. eigenvalues --   -0.39949  -0.38732  -0.37888  -0.35937  -0.35246
 Alpha  occ. eigenvalues --   -0.32059  -0.31781  -0.29737  -0.27786  -0.24628
 Alpha virt. eigenvalues --   -0.03662   0.00158   0.01986   0.03550   0.03645
 Alpha virt. eigenvalues --    0.07010   0.08001   0.09227   0.10318   0.11627
 Alpha virt. eigenvalues --    0.12124   0.12398   0.12875   0.13079   0.13354

 Mulliken charges:
               1
     1  C   -0.184066
     2  C   -0.184066
     3  C    0.173872
     4  C   -0.086050
     5  C   -0.086050
     6  C    0.173872
     7  C    0.045662
     8  C    0.207216
     9  C    0.207216
    10  C    0.045662
    11  C   -0.324821
    12  C    0.234286
    13  C    0.234286
    14  C   -0.324821
    15  C   -0.344776
    16  C    0.233025
    17  C    0.233025
    18  C   -0.344776
    19  C   -0.317059
    20  C    0.193615
    21  C    0.193615
    22  C   -0.317059
    23  C   -0.235771
    24  C   -0.096564
    25  C   -0.096564
    26  C   -0.235771
    27  C   -0.178029
    28  C   -0.095273
    29  C   -0.177903
    30  C   -0.177903
    31  C   -0.095273
    32  C   -0.178029
    33  H    0.105042
    34  H    0.105042
    35  H    0.095908
    36  H    0.095908
    37  H    0.103407
    38  H    0.103407
    39  H    0.104309
    40  H    0.104309
    41  H    0.110129
    42  H    0.119353
    43  H    0.119353
    44  H    0.110129
    45  H    0.094754
    46  H    0.112179
    47  H    0.107556
    48  H    0.107556
    49  H    0.112179
    50  H    0.094754
 Sum of Mulliken charges =   0.00000

 Dipole moment (field-independent basis, Debye):
    X=             -0.0433    Y=              0.0000    Z=              0.0000  Tot=              0.0433
 Quadrupole moment (field-independent basis, Debye-Ang):
   XX=           -155.5920   YY=           -157.0304   ZZ=           -194.3803
   XY=              0.0000   XZ=             -0.0001   YZ=              0.0001

  Exact polarizability: 785.143   0.000 411.084   0.000   0.000 161.287
 Approx polarizability: 689.451   0.000 527.401   0.000   0.001 226.328

                      1                      2                      3
                      A                      A                      A
 Frequencies --     21.5204                29.9273                43.1001
 Red. masses --      5.7625                 4.2720                 5.2574
 Frc consts  --      0.0016                 0.0023                 0.0058
 IR Inten    --      0.0894                 0.0000                 0.3248

                      4                      5                      6
                      A                      A                      A
 Frequencies --     80.2636                95.4849               107.8394
 Red. masses --      5.8765                 5.7301                 4.0653
 Frc consts  --      0.0223                 0.0308                 0.0279
 IR Inten    --      0.1294                 0.1550                 0.0000

                      7                      8                      9
                      A                      A                      A
 Frequencies --    152.5850               158.6323               186.5604
 Red. masses --      3.9937                 5.6917                 5.7431
 Frc consts  --      0.0548                 0.0844                 0.1178
 IR Inten    --      0.0000                 2.9888                 0.6682

                     10                     11                     12
                      A                      A                      A
 Frequencies --    198.9141               217.1094               220.9790
 Red. masses --      7.3863                 4.0872                 3.4676
 Frc consts  --      0.1722                 0.1135                 0.0998
 IR Inten    --      0.0010                 0.0000                 2.2554

                     13                     14                     15
                      A                      A                      A
 Frequencies --    243.1002               294.8529               316.4441
 Red. masses --      5.4580                 4.4818                 5.5877
 Frc consts  --      0.1900                 0.2296                 0.3297
 IR Inten    --      0.6135                 0.0000                 0.0413

                     16                     17                     18
                      A                      A                      A
 Frequencies --    353.0730               354.5541               378.3958
 Red. masses --      4.5864                 3.9554                 4.9069
 Frc consts  --      0.3369                 0.2930                 0.4140
 IR Inten    --      0.7442                 0.0000                 0.0035

                     19                     20                     21
                      A                      A                      A
 Frequencies --    400.3634               411.4177               413.3060
 Red. masses --      7.9030                 5.9515                 3.6059
 Frc consts  --      0.7464                 0.5935                 0.3629
 IR Inten    --      1.2238                 0.0351                 0.0013

                     22                     23                     24
                      A                      A                      A
 Frequencies --    457.7648               465.8898               466.4061
 Red. masses --      4.1852                 7.0435                 2.7295
 Frc consts  --      0.5167                 0.9008                 0.3498
 IR Inten    --      0.0000                 7.4180                12.9370

                     25                     26                     27
                      A                      A                      A
 Frequencies --    478.2338               481.5987               491.0318
 Red. masses --      5.4863                 2.4380                 2.8968
 Frc consts  --      0.7393                 0.3332                 0.4115
 IR Inten    --      0.0031                15.4635                 0.4669

                     28                     29                     30
                      A                      A                      A
 Frequencies --    504.2627               522.0657               533.2269
 Red. masses --      3.4019                 4.6405                 7.5661
 Frc consts  --      0.5097                 0.7452                 1.2675
 IR Inten    --      0.6967                 1.2412                 0.6620

                     31                     32                     33
                      A                      A                      A
 Frequencies --    549.6469               568.7065               583.2658
 Red. masses --      3.5430                 7.1350                 3.1556
 Frc consts  --      0.6307                 1.3596                 0.6325
 IR Inten    --      0.0000                 5.5800                 0.0000

                     34                     35                     36
                      A                      A                      A
 Frequencies --    600.0157               602.0838               607.8774
 Red. masses --      5.1257                 3.6241                 7.0735
 Frc consts  --      1.0873                 0.7740                 1.5400
 IR Inten    --      0.0000                 1.6815                 2.5338

                     37                     38                     39
                      A                      A                      A
 Frequencies --    634.5149               642.7157               647.8941
 Red. masses --      4.7859                 7.3976                 6.9280
 Frc consts  --      1.1353                 1.8004                 1.7134
 IR Inten    --      0.0000                 0.4597                 1.8389

                     40                     41                     42
                      A                      A                      A
 Frequencies --    664.5670               719.1748               735.7492
 Red. masses --      7.1720                 6.5753                 5.4373
 Frc consts  --      1.8662                 2.0037                 1.7342
 IR Inten    --      0.0170                 0.4824                 0.0000

                     43                     44                     45
                      A                      A                      A
 Frequencies --    745.8942               753.9595               760.5777
 Red. masses --      1.9882                 5.9152                 1.2775
 Frc consts  --      0.6517                 1.9811                 0.4354
 IR Inten    --     60.7598                 2.7399                30.1379

                     46                     47                     48
                      A                      A                      A
 Frequencies --    764.2190               769.9551               777.3979
 Red. masses --      2.3701                 5.5321                 2.4401
 Frc consts  --      0.8155                 1.9323                 0.8689
 IR Inten    --      0.0000                 6.9468                 0.0000

                     49                     50                     51
                      A                      A                      A
 Frequencies --    786.5251               788.0679               795.2584
 Red. masses --      1.4435                 6.4846                 2.3055
 Frc consts  --      0.5261                 2.3728                 0.8591
 IR Inten    --     10.3123                 1.7917                 0.0000

                     52                     53                     54
                      A                      A                      A
 Frequencies --    804.2067               815.9210               837.3426
 Red. masses --      1.6699                 4.9725                 6.0753
 Frc consts  --      0.6363                 1.9504                 2.5097
 IR Inten    --      0.0000                 1.0773                 1.7723

                     55                     56                     57
                      A                      A                      A
 Frequencies --    858.3835               859.8160               861.6915
 Red. masses --      1.3115                 1.4239                 2.0326
 Frc consts  --      0.5693                 0.6202                 0.8892
 IR Inten    --      0.0000                30.8219                33.2322

                     58                     59                     60
                      A                      A                      A
 Frequencies --    879.9279               883.7253               906.5092
 Red. masses --      1.6929                 3.9170                 3.4228
 Frc consts  --      0.7723                 1.8023                 1.6572
 IR Inten    --      0.0000                 2.3297                 0.0000

                     61                     62                     63
                      A                      A                      A
 Frequencies --    908.5396               917.5197               924.9073
 Red. masses --      1.5992                 2.0153                 5.6619
 Frc consts  --      0.7777                 0.9996                 2.8537
 IR Inten    --      0.2701                 0.0000                 0.5403

                     64                     65                     66
                      A                      A                      A
 Frequencies --    928.6237               929.3949               941.0933
 Red. masses --      1.7188                 1.4694                 3.3335
 Frc consts  --      0.8733                 0.7478                 1.7394
 IR Inten    --      0.0000                21.7312                 1.2652

                     67                     68                     69
                      A                      A                      A
 Frequencies --    943.4910               948.1311               948.1770
 Red. masses --      2.0022                 5.1944                 1.5761
 Frc consts  --      1.0501                 2.7512                 0.8349
 IR Inten    --      0.0000                 3.8996                62.9705

                     70                     71                     72
                      A                      A                      A
 Frequencies --    985.3057               986.4822               993.9387
 Red. masses --      1.3032                 1.3033                 1.3427
 Frc consts  --      0.7454                 0.7472                 0.7815
 IR Inten    --      0.0000                 1.7893                 2.8561

                     73                     74                     75
                      A                      A                      A
 Frequencies --    999.9233              1003.9610              1026.7424
 Red. masses --      1.3147                 1.2934                 2.3699
 Frc consts  --      0.7745                 0.7681                 1.4720
 IR Inten    --      0.0000                 0.0000                 3.9884

                     76                     77                     78
                      A                      A                      A
 Frequencies --   1031.5883              1096.8336              1118.4910
 Red. masses --      7.3538                 3.0960                 3.2675
 Frc consts  --      4.6108                 2.1945                 2.4084
 IR Inten    --      1.7228                 1.9361                 3.8310

                     79                     80                     81
                      A                      A                      A
 Frequencies --   1121.5463              1131.7857              1145.8326
 Red. masses --      1.9167                 2.1273                 1.6132
 Frc consts  --      1.4205                 1.6055                 1.2479
 IR Inten    --      1.7326                 0.0775                 6.0241

                     82                     83                     84
                      A                      A                      A
 Frequencies --   1166.0803              1180.0452              1199.7332
 Red. masses --      1.8373                 1.2969                 1.1099
 Frc consts  --      1.4720                 1.0640                 0.9412
 IR Inten    --      3.8591                 0.3795                 0.0409

                     85                     86                     87
                      A                      A                      A
 Frequencies --   1209.6646              1217.8637              1218.7812
 Red. masses --      1.2570                 1.2584                 1.2454
 Frc consts  --      1.0837                 1.0997                 1.0900
 IR Inten    --      1.1431                 2.7637                 1.3101

                     88                     89                     90
                      A                      A                      A
 Frequencies --   1243.0071              1249.5941              1251.2436
 Red. masses --      2.4389                 1.7585                 2.0261
 Frc consts  --      2.2202                 1.6178                 1.8689
 IR Inten    --      0.9717                 0.0044                 0.0010

                     91                     92                     93
                      A                      A                      A
 Frequencies --   1272.6672              1294.5169              1314.6979
 Red. masses --      1.6865                 2.2323                 2.0310
 Frc consts  --      1.6094                 2.2040                 2.0683
 IR Inten    --      0.0011                 1.5028                 0.0416

                     94                     95                     96
                      A                      A                      A
 Frequencies --   1317.0629              1320.1942              1323.7104
 Red. masses --      1.7778                 2.4486                 3.2035
 Frc consts  --      1.8170                 2.5144                 3.3072
 IR Inten    --      2.6359                 8.4535                 7.4318

                     97                     98                     99
                      A                      A                      A
 Frequencies --   1329.4711              1342.9998              1357.8164
 Red. masses --      1.9985                 2.9749                 2.1934
 Frc consts  --      2.0812                 3.1613                 2.3826
 IR Inten    --      0.5770                14.9377                 0.9917

                    100                    101                    102
                      A                      A                      A
 Frequencies --   1361.4680              1366.6378              1388.2625
 Red. masses --      2.4532                 4.6389                 4.8936
 Frc consts  --      2.6791                 5.1047                 5.5567
 IR Inten    --      9.5368                 0.6123                 0.2159

                    103                    104                    105
                      A                      A                      A
 Frequencies --   1408.5994              1430.4469              1452.3300
 Red. masses --      2.0899                 6.1322                 3.4384
 Frc consts  --      2.4431                 7.3929                 4.2730
 IR Inten    --      3.5106                 1.3656                 6.0311

                    106                    107                    108
                      A                      A                      A
 Frequencies --   1462.4888              1469.1870              1471.1659
 Red. masses --      3.8324                 2.8423                 2.1377
 Frc consts  --      4.8295                 3.6148                 2.7259
 IR Inten    --      1.6252                 7.6471                 0.0094

                    109                    110                    111
                      A                      A                      A
 Frequencies --   1477.1825              1497.4429              1506.2576
 Red. masses --      7.9293                 2.7773                 2.4075
 Frc consts  --     10.1943                 3.6692                 3.2183
 IR Inten    --      2.5712                24.9565                 4.7200

                    112                    113                    114
                      A                      A                      A
 Frequencies --   1509.7908              1515.0874              1557.7803
 Red. masses --      5.2746                 3.7257                 3.2214
 Frc consts  --      7.0839                 5.0388                 4.6058
 IR Inten    --      4.5743                 5.6024                 0.1559

                    115                    116                    117
                      A                      A                      A
 Frequencies --   1576.6388              1597.3913              1615.2693
 Red. masses --      4.4842                 5.1265                 5.3201
 Frc consts  --      6.5675                 7.7071                 8.1783
 IR Inten    --      0.7917                 8.6598                 8.6220

                    118                    119                    120
                      A                      A                      A
 Frequencies --   1618.4346              1641.0164              1659.5729
 Red. masses --      7.2219                 6.2674                 6.4611
 Frc consts  --     11.1454                 9.9441                10.4845
 IR Inten    --      0.4011                 0.0042                 1.8662

                    121                    122                    123
                      A                      A                      A
 Frequencies --   1667.6128              1680.0840              1692.5615
 Red. masses --      5.5774                 6.4142                 6.7822
 Frc consts  --      9.1384                10.6673                11.4475
 IR Inten    --      0.0817                 4.9989                 0.2004

                    124                    125                    126
                      A                      A                      A
 Frequencies --   1705.8329              1710.6909              1719.7355
 Red. masses --      6.5846                 7.0617                 6.4978
 Frc consts  --     11.2889                12.1759                11.3224
 IR Inten    --      0.5237                 0.3371                 5.5061

                    127                    128                    129
                      A                      A                      A
 Frequencies --   3183.4836              3184.9997              3185.3546
 Red. masses --      1.0903                 1.0911                 1.0905
 Frc consts  --      6.5100                 6.5215                 6.5190
 IR Inten    --      0.2064                 1.7903                22.8032

                    130                    131                    132
                      A                      A                      A
 Frequencies --   3187.6106              3188.4234              3189.0712
 Red. masses --      1.0902                 1.0861                 1.0864
 Frc consts  --      6.5268                 6.5055                 6.5100
 IR Inten    --      1.0154                 3.5553                 0.7793

                    133                    134                    135
                      A                      A                      A
 Frequencies --   3192.9680              3193.5622              3193.6566
 Red. masses --      1.0883                 1.0873                 1.0870
 Frc consts  --      6.5373                 6.5333                 6.5324
 IR Inten    --      2.1270                 1.3449                 0.2458

                    136                    137                    138
                      A                      A                      A
 Frequencies --   3207.7241              3208.4679              3209.5129
 Red. masses --      1.0951                 1.0964                 1.0927
 Frc consts  --      6.6390                 6.6502                 6.6320
 IR Inten    --     21.6213                 4.1473                24.7834

                    139                    140                    141
                      A                      A                      A
 Frequencies --   3210.1793              3218.9986              3219.9619
 Red. masses --      1.0938                 1.0934                 1.0946
 Frc consts  --      6.6410                 6.6753                 6.6866
 IR Inten    --     54.0639                 2.4538                 9.4007

                    142                    143                    144
                      A                      A                      A
 Frequencies --   3220.0663              3238.4100              3239.3225
 Red. masses --      1.0970                 1.0892                 1.0890
 Frc consts  --      6.7017                 6.7301                 6.7329
 IR Inten    --     22.1644                19.2450                 0.0164

 - Thermochemistry -
 -------------------
 Temperature   298.150 Kelvin.  Pressure   1.00000 Atm.
 Atom     1 has atomic number  6 and mass  12.00000

 Molecular mass:   402.14085 amu.
 Principal axes and moments of inertia in atomic units:
                           1         2         3
     Eigenvalues --  4258.63231********************
           X            1.00000   0.00000   0.00000
           Y            0.00000   1.00000   0.00000
           Z            0.00000   0.00000   1.00000
 This molecule is an asymmetric top.
 Rotational symmetry number  1.
 Warning -- assumption of classical behavior for rotation
           may cause significant error
 Rotational temperatures (Kelvin)      0.02034     0.00281     0.00247
 Rotational constants (GHZ):           0.42378     0.05857     0.05146
 Zero-point vibrational energy    1044080.9 (Joules/Mol)
                                  249.54132 (Kcal/Mol)
 Warning -- explicit consideration of  36 degrees of freedom as
           vibrations may cause significant error
 Vibrational temperatures:     30.96    43.06    62.01   115.48   137.38
          (Kelvin)            155.16   219.54   228.24   268.42   286.19
                              312.37   317.94   349.77   424.23   455.29
                              507.99   510.12   544.43   576.03   591.94
                              594.65   658.62   670.31   671.05   688.07
                              692.91   706.48   725.52   751.14   767.19
                              790.82   818.24   839.19   863.29   866.26
                              874.60   912.92   924.72   932.17   956.16
                             1034.73  1058.58  1073.17  1084.78  1094.30
                             1099.54  1107.79  1118.50  1131.63  1133.85
                             1144.20  1157.07  1173.93  1204.75  1235.02
                             1237.08  1239.78  1266.02  1271.48  1304.26
                             1307.18  1320.10  1330.73  1336.08  1337.19
                             1354.02  1357.47  1364.15  1364.21  1417.63
                             1419.33  1430.05  1438.66  1444.47  1477.25
                             1484.22  1578.10  1609.26  1613.65  1628.39
                             1648.60  1677.73  1697.82  1726.15  1740.44
                             1752.23  1753.55  1788.41  1797.88  1800.26
                             1831.08  1862.52  1891.55  1894.96  1899.46
                             1904.52  1912.81  1932.27  1953.59  1958.85
                             1966.28  1997.40  2026.66  2058.09  2089.58
                             2104.19  2113.83  2116.68  2125.33  2154.48
                             2167.17  2172.25  2179.87  2241.30  2268.43
                             2298.29  2324.01  2328.56  2361.05  2387.75
                             2399.32  2417.26  2435.22  2454.31  2461.30
                             2474.31  4580.32  4582.50  4583.01  4586.25
                             4587.42  4588.36  4593.96  4594.82  4594.95
                             4615.19  4616.26  4617.77  4618.73  4631.42
                             4632.80  4632.95  4659.34  4660.66

 Zero-point correction=                           0.397669 (Hartree/Particle)
 Thermal correction to Energy=                    0.418482
 Thermal correction to Enthalpy=                  0.419427
 Thermal correction to Gibbs Free Energy=         0.347837
 Sum of electronic and zero-point Energies=          -1229.903726
 Sum of electronic and thermal Energies=             -1229.882913
 Sum of electronic and thermal Enthalpies=           -1229.881968
 Sum of electronic and thermal Free Energies=        -1229.953558

                     E (Thermal)             CV                S
                      KCal/Mol        Cal/Mol-Kelvin    Cal/Mol-Kelvin
 Total                  262.602             90.401            150.674
 Electronic               0.000              0.000              0.000
 Translational            0.889              2.981             43.866
 Rotational               0.889              2.981             36.774
 Vibrational            260.824             84.439             70.033
 Vibration     1          0.593              1.985              6.489
 Vibration     2          0.594              1.984              5.834
 Vibration     3          0.595              1.980              5.111
 Vibration     4          0.600              1.963              3.884
 Vibration     5          0.603              1.952              3.544
 Vibration     6          0.606              1.943              3.307
 Vibration     7          0.619              1.900              2.640
 Vibration     8          0.621              1.893              2.566
 Vibration     9          0.632              1.858              2.262
 Vibration    10          0.637              1.841              2.143
 Vibration    11          0.646              1.815              1.983
 Vibration    12          0.648              1.809              1.951
 Vibration    13          0.659              1.774              1.780
 Vibration    14          0.689              1.683              1.446
 Vibration    15          0.703              1.642              1.328
 Vibration    16          0.729              1.569              1.152
 Vibration    17          0.730              1.566              1.146
 Vibration    18          0.749              1.516              1.046
 Vibration    19          0.766              1.469              0.961
 Vibration    20          0.775              1.445              0.922
 Vibration    21          0.777              1.441              0.915
 Vibration    22          0.816              1.344              0.773
 Vibration    23          0.823              1.326              0.749
 Vibration    24          0.824              1.325              0.748
 Vibration    25          0.835              1.298              0.715
 Vibration    26          0.838              1.291              0.706
 Vibration    27          0.847              1.270              0.681
 Vibration    28          0.860              1.241              0.648
 Vibration    29          0.877              1.201              0.605
 Vibration    30          0.888              1.177              0.580
 Vibration    31          0.905              1.140              0.545
 Vibration    32          0.925              1.099              0.507
 Vibration    33          0.940              1.068              0.479
 Vibration    34          0.958              1.032              0.450
 Vibration    35          0.960              1.027              0.446
 Vibration    36          0.967              1.015              0.436

 Normal termination of Gaussian 09 at Sun Jul 28 04:32:47 2019.
