 Gaussian 09, Revision D.01,
 Gaussian 09:  AM64L-G09RevD.01 24-Apr-2013

 ----------------------------------------------------------------------
 #P wB97XD/def2tzvp opt=(tight) freq integral(Grid=ultrafine) # SCF(Max
 Cycle=380) 5d 7f GFPrint
 ----------------------------------------------------------------------

 ---------------------------------------
 The PBEPBE optimization and frequencies
 ---------------------------------------
 Symbolic Z-matrix:
 Charge =  0 Multiplicity = 1

 SCF Done:  E(RwB97XD) =  -232.246535699     A.U. after   11 cycles
 SCF Done:  E(RwB97XD) =  -232.246591901     A.U. after    7 cycles
 SCF Done:  E(RwB97XD) =  -232.246592503     A.U. after    6 cycles
 Optimization completed.
    -- Stationary point found.

 1\1\GINC-CN506-07-R\FOpt\RwB97XD\def2TZVP\C6H6\MINENKY\09-Jul-2021\0\\
 #P wB97XD/def2tzvp opt=(tight) freq integral(Grid=ultrafine) # SCF(Max
 Cycle=380) 5d 7f GFPrint\\The PBEPBE optimization and frequencies\\0,1
 \C,0.,1.3872982197,0.\H,0.,2.4701634778,0.\C,1.2014355009,0.6936491099
 ,0.\H,2.1392243233,1.2350817389,0.\C,1.2014355009,-0.6936491099,0.\H,2
 .1392243233,-1.2350817389,0.\C,0.,-1.3872982197,0.\H,0.,-2.4701634778,
 0.\C,-1.2014355009,-0.6936491099,0.\H,-2.1392243233,-1.2350817389,0.\C
 ,-1.2014355009,0.6936491099,0.\H,-2.1392243233,1.2350817389,0.\\Versio

 Normal termination of Gaussian 09 at Fri Jul  9 19:25:55 2021.

 ---------------------------------------------------------------------
 #P Geom=AllCheck Guess=TCheck SCRF=Check GenChk RwB97XD/def2TZVP Freq
 ---------------------------------------------------------------------

 Structure from the checkpoint file:  "m1_00_C6H6_wB97XD.chk"
 ---------------------------------------
 The PBEPBE optimization and frequencies
 ---------------------------------------
 Charge =  0 Multiplicity = 1

                         Standard orientation:
 ---------------------------------------------------------------------
 Center     Atomic      Atomic             Coordinates (Angstroms)
 Number     Number       Type             X           Y           Z
 ---------------------------------------------------------------------
      1          6           0        0.000000    1.387298    0.000000
      2          1           0        0.000000    2.470163    0.000000
      3          6           0        1.201436    0.693649    0.000000
      4          1           0        2.139224    1.235082    0.000000
      5          6           0        1.201436   -0.693649    0.000000
      6          1           0        2.139224   -1.235082    0.000000
      7          6           0        0.000000   -1.387298    0.000000
      8          1           0        0.000000   -2.470163    0.000000
      9          6           0       -1.201436   -0.693649    0.000000
     10          1           0       -2.139224   -1.235082    0.000000
     11          6           0       -1.201436    0.693649    0.000000
     12          1           0       -2.139224    1.235082    0.000000
 ---------------------------------------------------------------------

 SCF Done:  E(RwB97XD) =  -232.246592503     A.U. after    1 cycles

 The electronic state is 1-A1G.
 Alpha  occ. eigenvalues --  -10.28762 -10.28737 -10.28737 -10.28674 -10.28674
 Alpha  occ. eigenvalues --  -10.28645  -0.95982  -0.84747  -0.84747  -0.69815
 Alpha  occ. eigenvalues --   -0.69815  -0.61816  -0.54928  -0.53620  -0.50831
 Alpha  occ. eigenvalues --   -0.50831  -0.46186  -0.42601  -0.42601  -0.33305
 Alpha  occ. eigenvalues --   -0.33305
 Alpha virt. eigenvalues --    0.05802   0.05802   0.12483   0.15730   0.15730
 Alpha virt. eigenvalues --    0.18409   0.18409   0.20393   0.22349   0.22662
 Alpha virt. eigenvalues --    0.28475   0.29159   0.29504   0.29504   0.30936

 Mulliken charges:
               1
     1  C   -0.119746
     2  H    0.119746
     3  C   -0.119746
     4  H    0.119746
     5  C   -0.119746
     6  H    0.119746
     7  C   -0.119746
     8  H    0.119746
     9  C   -0.119746
    10  H    0.119746
    11  C   -0.119746
    12  H    0.119746
 Sum of Mulliken charges =   0.00000

 Dipole moment (field-independent basis, Debye):
    X=              0.0000    Y=              0.0000    Z=              0.0000  Tot=              0.0000
 Quadrupole moment (field-independent basis, Debye-Ang):
   XX=            -31.5442   YY=            -31.5442   ZZ=            -39.6427
   XY=              0.0000   XZ=              0.0000   YZ=              0.0000

  Exact polarizability:  77.070   0.000  77.048   0.000   0.000  38.635
 Approx polarizability:  88.942   0.000  88.942   0.000   0.000  46.768

                      1                      2                      3
                     E2U                    E2U                    E2G
 Frequencies --    416.1584               416.1584               627.1619
 Red. masses --      2.8744                 2.8744                 6.0795
 Frc consts  --      0.2933                 0.2933                 1.4089
 IR Inten    --      0.0000                 0.0000                 0.0000

                      4                      5                      6
                     E2G                    A2U                    B2G
 Frequencies --    627.1619               697.3959               726.4676
 Red. masses --      6.0795                 1.0848                 3.8081
 Frc consts  --      1.4089                 0.3109                 1.1841
 IR Inten    --      0.0000               119.0933                 0.0000

                      7                      8                      9
                     E1G                    E1G                    E2U
 Frequencies --    878.8569               878.8569               996.5122
 Red. masses --      1.2483                 1.2483                 1.3743
 Frc consts  --      0.5681                 0.5681                 0.8041
 IR Inten    --      0.0000                 0.0000                 0.0000

                     10                     11                     12
                     E2U                    B2G                    A1G
 Frequencies --    996.5122              1015.9753              1029.7669
 Red. masses --      1.3743                 1.2301                 6.0071
 Frc consts  --      0.8041                 0.7481                 3.7531
 IR Inten    --      0.0000                 0.0000                 0.0000

                     13                     14                     15
                     B1U                    E1U                    E1U
 Frequencies --   1031.0636              1073.1095              1073.1095
 Red. masses --      6.5319                 1.6654                 1.6654
 Frc consts  --      4.0913                 1.1300                 1.1300
 IR Inten    --      0.0000                 5.8563                 5.8429

                     16                     17                     18
                     B2U                    E2G                    E2G
 Frequencies --   1179.7410              1209.0985              1209.0985
 Red. masses --      1.1443                 1.1277                 1.1277
 Frc consts  --      0.9383                 0.9713                 0.9713
 IR Inten    --      0.0001                 0.0000                 0.0000

                     19                     20                     21
                     B2U                    A2G                    E1U
 Frequencies --   1339.1070              1390.0130              1529.2413
 Red. masses --      4.9592                 1.2483                 2.0652
 Frc consts  --      5.2395                 1.4210                 2.8455
 IR Inten    --      0.0000                 0.0000                 8.4152

                     22                     23                     24
                     E1U                    E2G                    E2G
 Frequencies --   1529.2413              1669.4108              1669.4108
 Red. masses --      2.0652                 5.5258                 5.5258
 Frc consts  --      2.8455                 9.0735                 9.0735
 IR Inten    --      8.4172                 0.0000                 0.0000

                     25                     26                     27
                     B1U                    E2G                    E2G
 Frequencies --   3188.0114              3197.8240              3197.8240
 Red. masses --      1.0840                 1.0882                 1.0882
 Frc consts  --      6.4914                 6.5566                 6.5566
 IR Inten    --      0.0000                 0.0000                 0.0000

                     28                     29                     30
                     E1U                    E1U                    A1G
 Frequencies --   3213.9143              3213.9143              3224.3075
 Red. masses --      1.0956                 1.0956                 1.1000
 Frc consts  --      6.6678                 6.6678                 6.7377
 IR Inten    --     30.0734                30.1342                 0.0000

 - Thermochemistry -
 -------------------
 Temperature   298.150 Kelvin.  Pressure   1.00000 Atm.
 Atom     1 has atomic number  6 and mass  12.00000

 Molecular mass:    78.04695 amu.
 Principal axes and moments of inertia in atomic units:
                           1         2         3
     Eigenvalues --   313.30320 313.30320 626.60639
           X            0.93818   0.34614   0.00000
           Y           -0.34614   0.93818   0.00000
           Z            0.00000   0.00000   1.00000
 This molecule is an oblate symmetric top.
 Rotational symmetry number 12.
 Rotational temperatures (Kelvin)      0.27645     0.27645     0.13823
 Rotational constants (GHZ):           5.76037     5.76037     2.88018
 Zero-point vibrational energy     265836.7 (Joules/Mol)
                                   63.53649 (Kcal/Mol)
 Warning -- explicit consideration of   2 degrees of freedom as
           vibrations may cause significant error
 Vibrational temperatures:    598.76   598.76   902.34   902.34  1003.40
          (Kelvin)           1045.22  1264.48  1264.48  1433.76  1433.76
                             1461.76  1481.60  1483.47  1543.96  1543.96
                             1697.38  1739.62  1739.62  1926.67  1999.92
                             2200.23  2200.23  2401.91  2401.91  4586.83
                             4600.95  4600.95  4624.10  4624.10  4639.05

 Zero-point correction=                           0.101252 (Hartree/Particle)
 Thermal correction to Energy=                    0.105608
 Thermal correction to Enthalpy=                  0.106552
 Thermal correction to Gibbs Free Energy=         0.076165
 Sum of electronic and zero-point Energies=           -232.145341
 Sum of electronic and thermal Energies=              -232.140984
 Sum of electronic and thermal Enthalpies=            -232.140040
 Sum of electronic and thermal Free Energies=         -232.170427

                     E (Thermal)             CV                S
                      KCal/Mol        Cal/Mol-Kelvin    Cal/Mol-Kelvin
 Total                   66.270             16.948             63.955
 Electronic               0.000              0.000              0.000
 Translational            0.889              2.981             38.979
 Rotational               0.889              2.981             20.685
 Vibrational             64.493             10.986              4.291
 Vibration     1          0.779              1.435              0.905
 Vibration     2          0.779              1.435              0.905

 Optimization completed.
    -- Stationary point found.

 1\1\GINC-CN506-07-R\Freq\RwB97XD\def2TZVP\C6H6\MINENKY\09-Jul-2021\0\\
 #P Geom=AllCheck Guess=TCheck SCRF=Check GenChk RwB97XD/def2TZVP Freq\
 \The PBEPBE optimization and frequencies\\0,1\C,0.,1.3872982197,0.\H,0
 .,2.4701634778,0.\C,1.2014355009,0.6936491099,0.\H,2.1392243233,1.2350
 817389,0.\C,1.2014355009,-0.6936491099,0.\H,2.1392243233,-1.2350817389
 ,0.\C,0.,-1.3872982197,0.\H,0.,-2.4701634778,0.\C,-1.2014355009,-0.693
 6491099,0.\H,-2.1392243233,-1.2350817389,0.\C,-1.2014355009,0.69364910
 99,0.\H,-2.1392243233,1.2350817389,0.\\Version=AM64L-G09RevD.01\State=

 Normal termination of Gaussian 09 at Fri Jul  9 19:31:29 2021.
