 Gaussian 09, Revision D.01,
 Gaussian 09:  AM64L-G09RevD.01 24-Apr-2013

 ----------------------------------------------------------------------
 #P wB97XD/def2tzvp opt=(tight) freq integral(Grid=ultrafine) # SCF(Max
 Cycle=380) 5d 7f GFPrint
 ----------------------------------------------------------------------

 ---------------------------------------
 The PBEPBE optimization and frequencies
 ---------------------------------------
 Symbolic Z-matrix:
 Charge =  0 Multiplicity = 1

 SCF Done:  E(RwB97XD) =  -310.882473058     A.U. after   13 cycles
 SCF Done:  E(RwB97XD) =  -310.882540972     A.U. after    9 cycles
 SCF Done:  E(RwB97XD) =  -310.882542151     A.U. after    7 cycles
 SCF Done:  E(RwB97XD) =  -310.882542199     A.U. after    5 cycles
 SCF Done:  E(RwB97XD) =  -310.882542201     A.U. after    5 cycles
 Optimization completed.
    -- Stationary point found.
 Normal termination of Gaussian 09 at Fri Jul  9 19:23:05 2021.

 ---------------------------------------------------------------------
 #P Geom=AllCheck Guess=TCheck SCRF=Check GenChk RwB97XD/def2TZVP Freq
 ---------------------------------------------------------------------

 Structure from the checkpoint file:  "m1_00_100-41-40_C8H8_wB97XD.chk"
 ---------------------------------------
 The PBEPBE optimization and frequencies
 ---------------------------------------
 Charge =  0 Multiplicity = 1

                         Standard orientation:
 ---------------------------------------------------------------------
 Center     Atomic      Atomic             Coordinates (Angstroms)
 Number     Number       Type             X           Y           Z
 ---------------------------------------------------------------------
      1          6           0        0.237655    0.491839    0.000000
      2          6           0        0.237996   -0.221478    1.194586
      3          6           0        0.237996   -0.221478   -1.194586
      4          6           0        0.237996   -1.607779    1.197860
      5          6           0        0.237996   -1.607779   -1.197860
      6          6           0        0.237393   -2.306292    0.000000
      7          1           0        0.241585    0.318018    2.135447
      8          1           0        0.241585    0.318018   -2.135447
      9          1           0        0.242088   -2.144292    2.138618
     10          1           0        0.242088   -2.144292   -2.138618
     11          1           0        0.240349   -3.388892    0.000000
     12          6           0        0.187022    1.997066    0.000000
     13          6           0       -1.247237    2.527217    0.000000
     14          1           0        0.715431    2.379235   -0.876649
     15          1           0        0.715431    2.379235    0.876649
     16          1           0       -1.262114    3.618495    0.000000
     17          1           0       -1.788681    2.178293    0.881294
     18          1           0       -1.788681    2.178293   -0.881294
 ---------------------------------------------------------------------

 SCF Done:  E(RwB97XD) =  -310.882542202     A.U. after    1 cycles

 The electronic state is 1-A'.
 Alpha  occ. eigenvalues --  -10.29113 -10.28417 -10.28415 -10.28409 -10.28188
 Alpha  occ. eigenvalues --  -10.28160 -10.28156 -10.27291  -0.96178  -0.88872
 Alpha  occ. eigenvalues --   -0.84412  -0.82134  -0.72856  -0.69931  -0.66960
 Alpha  occ. eigenvalues --   -0.60243  -0.55719  -0.54543  -0.51687  -0.50930
 Alpha  occ. eigenvalues --   -0.50071  -0.48275  -0.45707  -0.44081  -0.43348
 Alpha  occ. eigenvalues --   -0.41330  -0.41063  -0.32985  -0.31983
 Alpha virt. eigenvalues --    0.05977   0.06132   0.11581   0.13700   0.14650
 Alpha virt. eigenvalues --    0.15741   0.17220   0.17712   0.18881   0.19702
 Alpha virt. eigenvalues --    0.20379   0.21901   0.22253   0.22954   0.25331

 Mulliken charges:
               1
     1  C    0.219628
     2  C   -0.234880
     3  C   -0.234880
     4  C   -0.092833
     5  C   -0.092833
     6  C   -0.142662
     7  H    0.113388
     8  H    0.113388
     9  H    0.116049
    10  H    0.116049
    11  H    0.116948
    12  C   -0.212044
    13  C   -0.343670
    14  H    0.106381
    15  H    0.106381
    16  H    0.114755
    17  H    0.115418
    18  H    0.115418
 Sum of Mulliken charges =   0.00000

 Dipole moment (field-independent basis, Debye):
    X=             -0.0602    Y=              0.3773    Z=              0.0000  Tot=              0.3820
 Quadrupole moment (field-independent basis, Debye-Ang):
   XX=            -52.8011   YY=            -44.8669   ZZ=            -44.8908
   XY=              0.1097   XZ=              0.0000   YZ=              0.0000

  Exact polarizability:  61.330  -5.108 113.245   0.000   0.000  94.278
 Approx polarizability:  71.425  -0.940 117.344   0.000   0.000 113.386

                      1                      2                      3
                     A"                     A'                     A"
 Frequencies --     36.9889               137.3246               226.9594
 Red. masses --      2.4319                 3.2965                 1.0992
 Frc consts  --      0.0020                 0.0366                 0.0334
 IR Inten    --      0.0056                 0.8621                 0.0242

                      4                      5                      6
                     A'                     A"                     A"
 Frequencies --    315.5482               365.1054               418.8042
 Red. masses --      3.2607                 2.0213                 2.8974
 Frc consts  --      0.1913                 0.1587                 0.2994
 IR Inten    --      0.1585                 0.1059                 0.0006

                      7                      8                      9
                     A'                     A'                     A"
 Frequencies --    507.8990               573.6714               641.0024
 Red. masses --      3.8075                 3.1164                 6.3209
 Frc consts  --      0.5787                 0.6043                 1.5302
 IR Inten    --      5.6880                 8.5135                 0.0441

                     10                     11                     12
                     A'                     A'                     A'
 Frequencies --    724.1534               779.4102               796.5743
 Red. masses --      1.6615                 2.5112                 2.5687
 Frc consts  --      0.5133                 0.8988                 0.9603
 IR Inten    --     45.5192                21.1033                 9.4972

                     13                     14                     15
                     A"                     A"                     A'
 Frequencies --    800.0403               872.4975               938.9186
 Red. masses --      1.1584                 1.2491                 1.4000
 Frc consts  --      0.4369                 0.5602                 0.7271
 IR Inten    --      0.5555                 0.0130                 1.6993

                     16                     17                     18
                     A'                     A"                     A'
 Frequencies --    990.0393               991.5077              1004.9233
 Red. masses --      2.2620                 1.3686                 1.2696
 Frc consts  --      1.3063                 0.7927                 0.7554
 IR Inten    --      2.1514                 0.0086                 0.0726

                     19                     20                     21
                     A'                     A'                     A"
 Frequencies --   1028.6922              1065.3052              1067.2418
 Red. masses --      6.2432                 2.1270                 1.5136
 Frc consts  --      3.8925                 1.4222                 1.0157
 IR Inten    --      0.0619                 3.8311                 2.6022

                     22                     23                     24
                     A'                     A"                     A"
 Frequencies --   1095.8164              1129.8758              1188.1739
 Red. masses --      1.9857                 1.4134                 1.1401
 Frc consts  --      1.4049                 1.0631                 0.9483
 IR Inten    --      7.1446                 4.1362                 0.0412

                     25                     26                     27
                     A'                     A'                     A"
 Frequencies --   1214.3621              1241.6109              1276.9531
 Red. masses --      1.1260                 2.3597                 1.3897
 Frc consts  --      0.9783                 2.1432                 1.3351
 IR Inten    --      0.2573                 0.1670                 0.0125

                     28                     29                     30
                     A"                     A'                     A"
 Frequencies --   1345.5225              1365.5920              1370.5062
 Red. masses --      3.5190                 1.5775                 1.2672
 Frc consts  --      3.7537                 1.7332                 1.4023
 IR Inten    --      0.1917                 1.3933                 0.3287

                     31                     32                     33
                     A'                     A'                     A"
 Frequencies --   1415.3494              1495.7049              1500.0387
 Red. masses --      1.2273                 1.0529                 1.0464
 Frc consts  --      1.4485                 1.3878                 1.3872
 IR Inten    --      3.4224                 0.9544                 8.3704

                     34                     35                     36
                     A"                     A'                     A'
 Frequencies --   1502.6845              1512.8519              1548.2144
 Red. masses --      2.2130                 1.0948                 2.3433
 Frc consts  --      2.9442                 1.4763                 3.3093
 IR Inten    --      7.7085                 5.0345                13.5161

                     37                     38                     39
                     A"                     A'                     A'
 Frequencies --   1659.7679              1682.4624              3049.7283
 Red. masses --      5.7892                 5.8819                 1.0348
 Frc consts  --      9.3964                 9.8098                 5.6706
 IR Inten    --      0.8743                 6.8771                29.1305

                     40                     41                     42
                     A'                     A"                     A'
 Frequencies --   3059.5607              3097.0499              3127.9156
 Red. masses --      1.0604                 1.1033                 1.1025
 Frc consts  --      5.8485                 6.2353                 6.3553
 IR Inten    --     26.6349                 4.6177                39.7285

                     43                     44                     45
                     A"                     A'                     A"
 Frequencies --   3130.1528              3181.0469              3181.9991
 Red. masses --      1.1036                 1.0868                 1.0884
 Frc consts  --      6.3709                 6.4793                 6.4931
 IR Inten    --     32.0223                 8.7594                 5.8712

                     46                     47                     48
                     A'                     A"                     A'
 Frequencies --   3196.8097              3206.8383              3219.2679
 Red. masses --      1.0897                 1.0942                 1.0986
 Frc consts  --      6.5616                 6.6299                 6.7079
 IR Inten    --      4.4614                26.7746                12.4797

 - Thermochemistry -
 -------------------
 Temperature   298.150 Kelvin.  Pressure   1.00000 Atm.
 Atom     1 has atomic number  6 and mass  12.00000

 Molecular mass:   106.07825 amu.
 Principal axes and moments of inertia in atomic units:
                           1         2         3
     Eigenvalues --   394.349031220.798961470.74781
           X           -0.20181   0.00000   0.97942
           Y            0.97942   0.00000   0.20181
           Z            0.00000   1.00000   0.00000
 This molecule is an asymmetric top.
 Rotational symmetry number  1.
 Rotational temperatures (Kelvin)      0.21964     0.07095     0.05889
 Rotational constants (GHZ):           4.57651     1.47833     1.22709
 Zero-point vibrational energy     414377.2 (Joules/Mol)
                                   99.03854 (Kcal/Mol)
 Warning -- explicit consideration of   8 degrees of freedom as
           vibrations may cause significant error
 Vibrational temperatures:     53.22   197.58   326.54   454.00   525.30
          (Kelvin)            602.57   730.75   825.38   922.26  1041.89
                             1121.40  1146.09  1151.08  1255.33  1350.89
                             1424.44  1426.56  1445.86  1480.06  1532.73
                             1535.52  1576.63  1625.64  1709.52  1747.19
                             1786.40  1837.25  1935.90  1964.78  1971.85
                             2036.37  2151.98  2158.22  2162.03  2176.65
                             2227.53  2388.03  2420.69  4387.87  4402.02
                             4455.96  4500.37  4503.59  4576.81  4578.18
                             4599.49  4613.92  4631.80

 Zero-point correction=                           0.157828 (Hartree/Particle)
 Thermal correction to Energy=                    0.165101
 Thermal correction to Enthalpy=                  0.166045
 Thermal correction to Gibbs Free Energy=         0.125624
 Sum of electronic and zero-point Energies=           -310.724714
 Sum of electronic and thermal Energies=              -310.717441
 Sum of electronic and thermal Enthalpies=            -310.716497
 Sum of electronic and thermal Free Energies=         -310.756918

                     E (Thermal)             CV                S
                      KCal/Mol        Cal/Mol-Kelvin    Cal/Mol-Kelvin
 Total                  103.603             27.614             85.074
 Electronic               0.000              0.000              0.000
 Translational            0.889              2.981             39.894
 Rotational               0.889              2.981             28.051
 Vibrational            101.825             21.652             17.130
 Vibration     1          0.594              1.982              5.414
 Vibration     2          0.614              1.916              2.841
 Vibration     3          0.651              1.800              1.903
 Vibration     4          0.703              1.644              1.333
 Vibration     5          0.738              1.544              1.100
 Vibration     6          0.782              1.429              0.896
 Vibration     7          0.863              1.232              0.639
 Vibration     8          0.930              1.088              0.497

 Optimization completed.
    -- Stationary point found.
 Normal termination of Gaussian 09 at Fri Jul  9 19:29:18 2021.
