 Gaussian 09, Revision D.01,
 Gaussian 09:  AM64L-G09RevD.01 24-Apr-2013

 ----------------------------------------------------------------------
 #P wB97XD/def2tzvp opt=(tight) freq integral(Grid=ultrafine) # SCF(Max
 Cycle=380) 5d 7f GFPrint
 ----------------------------------------------------------------------

 ---------------------------------------
 The PBEPBE optimization and frequencies
 ---------------------------------------
 Symbolic Z-matrix:
 Charge =  0 Multiplicity = 1

 SCF Done:  E(RwB97XD) =  -230.772907581     A.U. after   16 cycles
 SCF Done:  E(RwB97XD) =  -230.808185153     A.U. after   15 cycles
 SCF Done:  E(RwB97XD) =  -230.822172210     A.U. after   16 cycles
 SCF Done:  E(RwB97XD) =  -230.825865484     A.U. after   16 cycles
 SCF Done:  E(RwB97XD) =  -230.826606544     A.U. after   16 cycles
 SCF Done:  E(RwB97XD) =  -230.826735411     A.U. after   15 cycles
 SCF Done:  E(RwB97XD) =  -230.826759028     A.U. after   11 cycles
 SCF Done:  E(RwB97XD) =  -230.826763834     A.U. after   11 cycles
 SCF Done:  E(RwB97XD) =  -230.826765653     A.U. after   10 cycles
 SCF Done:  E(RwB97XD) =  -230.826766436     A.U. after   10 cycles
 SCF Done:  E(RwB97XD) =  -230.826766547     A.U. after    9 cycles
 SCF Done:  E(RwB97XD) =  -230.826766547     A.U. after    7 cycles
 SCF Done:  E(RwB97XD) =  -230.826766548     A.U. after    7 cycles
 Optimization completed.
    -- Stationary point found.
 Normal termination of Gaussian 09 at Thu Sep 28 17:42:04 2023.

 ---------------------------------------------------------------------
 #P Geom=AllCheck Guess=TCheck SCRF=Check GenChk RwB97XD/def2TZVP Freq
 ---------------------------------------------------------------------

 Structure from the checkpoint file:  "m1_00_3355-34-80_C6H4_wB97XD.chk"
 ---------------------------------------
 The PBEPBE optimization and frequencies
 ---------------------------------------
 Charge =  0 Multiplicity = 1

                         Standard orientation:
 ---------------------------------------------------------------------
 Center     Atomic      Atomic             Coordinates (Angstroms)
 Number     Number       Type             X           Y           Z
 ---------------------------------------------------------------------
      1          6           0        0.000000    1.188064    0.739805
      2          6           0        0.000000    0.000000    1.341542
      3          6           0        0.000000   -1.188064    0.739805
      4          6           0        0.000000   -1.188064   -0.739805
      5          6           0        0.000000    0.000000   -1.341542
      6          6           0        0.000000    1.188064   -0.739805
      7          1           0        0.067766    2.169680    1.186230
      8          1           0       -0.067766   -2.169680    1.186230
      9          1           0       -0.067766   -2.169680   -1.186230
     10          1           0        0.067766    2.169680   -1.186230
 ---------------------------------------------------------------------

 SCF Done:  E(RwB97XD) =  -230.826766548     A.U. after    1 cycles

 The electronic state is 1-AG.
 Alpha  occ. eigenvalues --  -10.32142 -10.32140 -10.32113 -10.32110 -10.30106
 Alpha  occ. eigenvalues --  -10.30102  -0.97864  -0.86334  -0.85464  -0.72587
 Alpha  occ. eigenvalues --   -0.69330  -0.57397  -0.56984  -0.56953  -0.50566
 Alpha  occ. eigenvalues --   -0.48018  -0.47860  -0.35632  -0.34240  -0.28528
 Alpha virt. eigenvalues --   -0.06623   0.02116   0.07766   0.13106   0.14516
 Alpha virt. eigenvalues --    0.17434   0.18249   0.22029   0.22547   0.23952
 Alpha virt. eigenvalues --    0.27768   0.28280   0.28550   0.28642   0.30570

 Mulliken charges:
               1
     1  C   -0.144928
     2  C   -0.041607
     3  C   -0.144928
     4  C   -0.144928
     5  C   -0.041607
     6  C   -0.144928
     7  H    0.165731
     8  H    0.165731
     9  H    0.165731
    10  H    0.165731
 Sum of Mulliken charges =   0.00000

 Dipole moment (field-independent basis, Debye):
    X=              0.0000    Y=              0.0000    Z=              0.0000  Tot=              0.0000
 Quadrupole moment (field-independent basis, Debye-Ang):
   XX=            -38.0525   YY=            -24.8858   ZZ=            -38.6498
   XY=              0.6110   XZ=              0.0000   YZ=              0.0000

  Exact polarizability:  37.603   0.505  79.129   0.000   0.000 108.145
 Approx polarizability:  45.348   0.527 100.765   0.000   0.000 203.686

                      1                      2                      3
                     AG                     AU                     BG
 Frequencies --    161.4059               459.2435               469.7659
 Red. masses --      1.2613                 3.7017                 3.4918
 Frc consts  --      0.0194                 0.4600                 0.4540
 IR Inten    --      0.0000                 0.2481                 0.0000

                      4                      5                      6
                     BU                     BG                     AU
 Frequencies --    478.1246               561.6026               623.4429
 Red. masses --      2.5285                 6.4295                 6.9315
 Frc consts  --      0.3406                 1.1948                 1.5873
 IR Inten    --     36.1821                 0.0000               737.2042

                      7                      8                      9
                     BU                     AG                     BU
 Frequencies --    728.1590               730.4966               753.2058
 Red. masses --      4.6261                 7.6921                 1.9626
 Frc consts  --      1.4452                 2.4184                 0.6560
 IR Inten    --     26.7215                 0.0000                67.1551

                     10                     11                     12
                     BG                     AU                     AG
 Frequencies --    859.0021               911.7047               951.0070
 Red. masses --      1.4168                 1.2443                 5.5661
 Frc consts  --      0.6160                 0.6094                 2.9660
 IR Inten    --      0.0000                 3.7114                 0.0000

                     13                     14                     15
                     AU                     BU                     AG
 Frequencies --   1087.7991              1092.7036              1173.6474
 Red. masses --      1.4275                 1.0754                 1.1483
 Frc consts  --      0.9953                 0.7565                 0.9319
 IR Inten    --     54.0439                23.6781                 0.0000

                     16                     17                     18
                     BG                     AG                     AU
 Frequencies --   1235.3624              1321.5380              1414.4507
 Red. masses --      1.1713                 7.0197                 2.9277
 Frc consts  --      1.0532                 7.2231                 3.4511
 IR Inten    --      0.0000                 0.0000                22.7618

                     19                     20                     21
                     BU                     BG                     AU
 Frequencies --   1506.7493              1758.1678              3232.3518
 Red. masses --      6.0163                 9.9870                 1.0889
 Frc consts  --      8.0474                18.1888                 6.7029
 IR Inten    --      1.5612                 0.0000                 0.0682

                     22                     23                     24
                     BG                     AG                     BU
 Frequencies --   3235.4957              3252.6922              3252.7188
 Red. masses --      1.0894                 1.0967                 1.0953
 Frc consts  --      6.7193                 6.8364                 6.8275
 IR Inten    --      0.0000                 0.0000                14.0748

 - Thermochemistry -
 -------------------
 Temperature   298.150 Kelvin.  Pressure   1.00000 Atm.
 Atom     1 has atomic number  6 and mass  12.00000

 Molecular mass:    76.03130 amu.
 Principal axes and moments of inertia in atomic units:
                           1         2         3
     Eigenvalues --   268.37144 309.78163 578.04978
           X            0.00684   0.00000   0.99998
           Y            0.99998   0.00000  -0.00684
           Z            0.00000   1.00000   0.00000
 This molecule is an asymmetric top.
 Rotational symmetry number  2.
 Rotational temperatures (Kelvin)      0.32274     0.27960     0.14984
 Rotational constants (GHZ):           6.72479     5.82585     3.12212
 Zero-point vibrational energy     186921.5 (Joules/Mol)
                                   44.67531 (Kcal/Mol)
 Warning -- explicit consideration of   5 degrees of freedom as
           vibrations may cause significant error
 Vibrational temperatures:    232.23   660.75   675.89   687.91   808.02
          (Kelvin)            896.99  1047.66  1051.02  1083.69  1235.91
                             1311.74  1368.29  1565.10  1572.15  1688.61
                             1777.41  1901.40  2035.08  2167.87  2529.61
                             4650.63  4655.15  4679.89  4679.93

 Zero-point correction=                           0.071195 (Hartree/Particle)
 Thermal correction to Energy=                    0.076289
 Thermal correction to Enthalpy=                  0.077233
 Thermal correction to Gibbs Free Energy=         0.043943
 Sum of electronic and zero-point Energies=           -230.755572
 Sum of electronic and thermal Energies=              -230.750478
 Sum of electronic and thermal Enthalpies=            -230.749534
 Sum of electronic and thermal Free Energies=         -230.782823

                     E (Thermal)             CV                S
                      KCal/Mol        Cal/Mol-Kelvin    Cal/Mol-Kelvin
 Total                   47.872             18.984             70.064
 Electronic               0.000              0.000              0.000
 Translational            0.889              2.981             38.901
 Rotational               0.889              2.981             24.000
 Vibrational             46.094             13.023              7.162
 Vibration     1          0.622              1.890              2.533
 Vibration     2          0.817              1.340              0.768
 Vibration     3          0.827              1.317              0.738
 Vibration     4          0.835              1.299              0.715
 Vibration     5          0.917              1.114              0.521

 Optimization completed.
    -- Stationary point found.
 Normal termination of Gaussian 09 at Thu Sep 28 17:42:54 2023.
