 Gaussian 09, Revision D.01,
 Gaussian 09:  AM64L-G09RevD.01 24-Apr-2013

 ----------------------------------------------------------------------
 #P wB97XD/def2tzvp geom=checkpoint freq integral(Grid=ultrafine) # SCF
 (MaxCycle=380) 5d 7f GFPrint
 ----------------------------------------------------------------------

 ---------------------------------------
 The PBEPBE optimization and frequencies
 ---------------------------------------
 Structure from the checkpoint file:  "m1_00_463-82-10_C5H12_wB97XD.chk"
 Charge =  0 Multiplicity = 1

                         Standard orientation:
 ---------------------------------------------------------------------
 Center     Atomic      Atomic             Coordinates (Angstroms)
 Number     Number       Type             X           Y           Z
 ---------------------------------------------------------------------
      1          6           0       -0.000003   -0.000020   -0.000016
      2          6           0        1.370717   -0.556179   -0.391614
      3          1           0        1.365102   -0.922249   -1.421194
      4          1           0        2.142477    0.213398   -0.312865
      5          1           0        1.656657   -1.386506    0.258675
      6          6           0       -0.365344    1.158332   -0.930745
      7          1           0       -0.406129    0.826750   -1.971164
      8          1           0       -1.341905    1.575058   -0.672388
      9          1           0        0.371583    1.962330   -0.863036
     10          6           0        0.047024    0.501928    1.444754
     11          1           0       -0.921267    0.905486    1.750746
     12          1           0        0.306194   -0.307054    2.132083
     13          1           0        0.792248    1.292715    1.560372
     14          6           0       -1.052393   -1.104096   -0.122399
     15          1           0       -0.815220   -1.945449    0.533304
     16          1           0       -2.042851   -0.733022    0.152119
     17          1           0       -1.106899   -1.481248   -1.146535
 ---------------------------------------------------------------------

 SCF Done:  E(RwB97XD) =  -197.785502852     A.U. after   12 cycles

 The electronic state is 1-A.
 Alpha  occ. eigenvalues --  -10.29152 -10.26485 -10.26485 -10.26485 -10.26483
 Alpha  occ. eigenvalues --   -0.92251  -0.77989  -0.77989  -0.77989  -0.62367
 Alpha  occ. eigenvalues --   -0.53575  -0.53575  -0.53575  -0.48447  -0.48447
 Alpha  occ. eigenvalues --   -0.44383  -0.44383  -0.44382  -0.39988  -0.39988
 Alpha  occ. eigenvalues --   -0.39988
 Alpha virt. eigenvalues --    0.09988   0.16227   0.16227   0.16228   0.16737
 Alpha virt. eigenvalues --    0.16737   0.16737   0.20334   0.22178   0.22178
 Alpha virt. eigenvalues --    0.23716   0.23716   0.23716   0.24826   0.24826

 Mulliken charges:
               1
     1  C    0.025403
     2  C   -0.343709
     3  H    0.112458
     4  H    0.112460
     5  H    0.112455
     6  C   -0.343737
     7  H    0.112462
     8  H    0.112461
     9  H    0.112459
    10  C   -0.343737
    11  H    0.112461
    12  H    0.112465
    13  H    0.112458
    14  C   -0.343731
    15  H    0.112457
    16  H    0.112457
    17  H    0.112459
 Sum of Mulliken charges =   0.00000

 Dipole moment (field-independent basis, Debye):
    X=              0.0000    Y=              0.0000    Z=              0.0000  Tot=              0.0000
 Quadrupole moment (field-independent basis, Debye-Ang):
   XX=            -35.4413   YY=            -35.4412   ZZ=            -35.4409
   XY=              0.0000   XZ=              0.0000   YZ=             -0.0001

  Exact polarizability:  62.410   0.000  62.422   0.003   0.003  62.429
 Approx polarizability:  65.221   0.000  65.221   0.000   0.000  65.222

                      1                      2                      3
                      A                      A                      A
 Frequencies --    203.0725               283.5146               284.7447
 Red. masses --      1.0078                 1.0310                 1.0310
 Frc consts  --      0.0245                 0.0488                 0.0493
 IR Inten    --      0.0000                 0.0000                 0.0000

                      4                      5                      6
                      A                      A                      A
 Frequencies --    285.2219               338.2586               338.4230
 Red. masses --      1.0309                 2.1813                 2.1818
 Frc consts  --      0.0494                 0.1471                 0.1472
 IR Inten    --      0.0000                 0.0000                 0.0000

                      7                      8                      9
                      A                      A                      A
 Frequencies --    425.5405               425.6920               425.7526
 Red. masses --      2.1018                 2.1021                 2.1020
 Frc consts  --      0.2243                 0.2244                 0.2245
 IR Inten    --      0.0809                 0.0812                 0.0804

                     10                     11                     12
                      A                      A                      A
 Frequencies --    746.6175               944.7314               944.9076
 Red. masses --      3.4417                 1.9309                 1.9307
 Frc consts  --      1.1304                 1.0154                 1.0156
 IR Inten    --      0.0000                 0.3989                 0.4009

                     13                     14                     15
                      A                      A                      A
 Frequencies --    944.9413               968.3793               968.6198
 Red. masses --      1.9309                 1.2042                 1.2041
 Frc consts  --      1.0159                 0.6654                 0.6656
 IR Inten    --      0.4024                 0.0000                 0.0000

                     16                     17                     18
                      A                      A                      A
 Frequencies --    969.0726              1093.8892              1094.0166
 Red. masses --      1.2042                 1.3642                 1.3642
 Frc consts  --      0.6663                 0.9618                 0.9620
 IR Inten    --      0.0000                 0.0000                 0.0000

                     19                     20                     21
                      A                      A                      A
 Frequencies --   1290.6894              1290.7522              1290.8130
 Red. masses --      2.6207                 2.6196                 2.6178
 Frc consts  --      2.5722                 2.5714                 2.5699
 IR Inten    --      4.1237                 4.1254                 4.1074

                     22                     23                     24
                      A                      A                      A
 Frequencies --   1407.0754              1407.4244              1407.4586
 Red. masses --      1.2672                 1.2670                 1.2667
 Frc consts  --      1.4782                 1.4787                 1.4785
 IR Inten    --     12.7603                12.8120                12.7593

                     25                     26                     27
                      A                      A                      A
 Frequencies --   1444.4669              1485.0938              1485.2874
 Red. masses --      1.2312                 1.0468                 1.0468
 Frc consts  --      1.5136                 1.3603                 1.3606
 IR Inten    --      0.0003                 0.0004                 0.0001

                     28                     29                     30
                      A                      A                      A
 Frequencies --   1485.3344              1492.1662              1492.3790
 Red. masses --      1.0468                 1.0403                 1.0403
 Frc consts  --      1.3608                 1.3648                 1.3652
 IR Inten    --      0.0000                 0.0001                 0.0000

                     31                     32                     33
                      A                      A                      A
 Frequencies --   1521.7871              1521.8838              1522.0445
 Red. masses --      1.0682                 1.0683                 1.0683
 Frc consts  --      1.4576                 1.4578                 1.4581
 IR Inten    --     12.7040                12.6591                12.6675

                     34                     35                     36
                      A                      A                      A
 Frequencies --   3035.6783              3035.7615              3035.8694
 Red. masses --      1.0347                 1.0347                 1.0347
 Frc consts  --      5.6178                 5.6181                 5.6185
 IR Inten    --     38.3761                38.4063                38.8178

                     37                     38                     39
                      A                      A                      A
 Frequencies --   3044.5915              3109.3127              3109.4395
 Red. masses --      1.0362                 1.1031                 1.1031
 Frc consts  --      5.6592                 6.2834                 6.2838
 IR Inten    --      0.0037                 0.0627                 0.1399

                     40                     41                     42
                      A                      A                      A
 Frequencies --   3110.0924              3111.6647              3111.8570
 Red. masses --      1.1031                 1.1021                 1.1021
 Frc consts  --      6.2864                 6.2869                 6.2878
 IR Inten    --      0.0253                 0.5067                 0.1300

                     43                     44                     45
                      A                      A                      A
 Frequencies --   3116.1155              3116.6917              3116.9629
 Red. masses --      1.1012                 1.1012                 1.1012
 Frc consts  --      6.3000                 6.3022                 6.3033
 IR Inten    --     84.0424                84.3241                84.8940

 - Thermochemistry -
 -------------------
 Temperature   298.150 Kelvin.  Pressure   1.00000 Atm.
 Atom     1 has atomic number  6 and mass  12.00000

 Molecular mass:    72.09390 amu.
 Principal axes and moments of inertia in atomic units:
                           1         2         3
     Eigenvalues --   403.86521 403.86801 403.87264
           X            0.99781   0.06605   0.00187
           Y           -0.06607   0.99777   0.00952
           Z           -0.00124  -0.00963   0.99995
 This molecule is an asymmetric top.
 Rotational symmetry number  1.
 Rotational temperatures (Kelvin)      0.21446     0.21446     0.21446
 Rotational constants (GHZ):           4.46867     4.46864     4.46859
 Zero-point vibrational energy     420392.2 (Joules/Mol)
                                  100.47615 (Kcal/Mol)
 Warning -- explicit consideration of   9 degrees of freedom as
           vibrations may cause significant error
 Vibrational temperatures:    292.18   407.91   409.68   410.37   486.68
          (Kelvin)            486.91   612.26   612.48   612.56  1074.21
                             1359.26  1359.51  1359.56  1393.28  1393.63
                             1394.28  1573.86  1574.04  1857.01  1857.10
                             1857.19  2024.47  2024.97  2025.02  2078.26
                             2136.72  2136.99  2137.06  2146.89  2147.20
                             2189.51  2189.65  2189.88  4367.66  4367.78
                             4367.93  4380.48  4473.60  4473.78  4474.72
                             4476.99  4477.26  4483.39  4484.22  4484.61

 Zero-point correction=                           0.160119 (Hartree/Particle)
 Thermal correction to Energy=                    0.166941
 Thermal correction to Enthalpy=                  0.167885
 Thermal correction to Gibbs Free Energy=         0.131103
 Sum of electronic and zero-point Energies=           -197.625384
 Sum of electronic and thermal Energies=              -197.618562
 Sum of electronic and thermal Enthalpies=            -197.617617
 Sum of electronic and thermal Free Energies=         -197.654400

                     E (Thermal)             CV                S
                      KCal/Mol        Cal/Mol-Kelvin    Cal/Mol-Kelvin
 Total                  104.757             25.681             77.415
 Electronic               0.000              0.000              0.000
 Translational            0.889              2.981             38.743
 Rotational               0.889              2.981             25.691
 Vibrational            102.980             19.719             12.982
 Vibration     1          0.639              1.836              2.105
 Vibration     2          0.682              1.704              1.512
 Vibration     3          0.683              1.702              1.505
 Vibration     4          0.683              1.701              1.502
 Vibration     5          0.719              1.599              1.220
 Vibration     6          0.719              1.599              1.220
 Vibration     7          0.787              1.415              0.873
 Vibration     8          0.788              1.414              0.873
 Vibration     9          0.788              1.414              0.873

 Optimization completed.
    -- Stationary point found.
 Normal termination of Gaussian 09 at Sat Jul 10 19:55:30 2021.
