 Gaussian 09, Revision D.01,
 Gaussian 09:  AM64L-G09RevD.01 24-Apr-2013

 ----------------------------------------------------------------------
 #P wB97XD/def2tzvp opt=(tight) freq integral(Grid=ultrafine) # SCF(Max
 Cycle=380) 5d 7f GFPrint
 ----------------------------------------------------------------------

 ---------------------------------------
 The PBEPBE optimization and frequencies
 ---------------------------------------
 Symbolic Z-matrix:
 Charge =  0 Multiplicity = 1

 SCF Done:  E(RwB97XD) =  -117.910049526     A.U. after   13 cycles
 SCF Done:  E(RwB97XD) =  -117.910065049     A.U. after    8 cycles
 SCF Done:  E(RwB97XD) =  -117.910065460     A.U. after    7 cycles
 SCF Done:  E(RwB97XD) =  -117.910065474     A.U. after    5 cycles
 Optimization completed.
    -- Stationary point found.

 1\1\GINC-CN506-06-R\FOpt\RwB97XD\def2TZVP\C3H6\MINENKY\09-Jul-2021\0\\
 #P wB97XD/def2tzvp opt=(tight) freq integral(Grid=ultrafine) # SCF(Max
 Cycle=380) 5d 7f GFPrint\\The PBEPBE optimization and frequencies\\0,1
 \C,0.0001319457,0.4718925342,0.\C,1.2839442031,0.1491482163,0.\H,2.058
 3166847,0.9059041565,0.\H,1.6071968102,-0.8865285713,0.\H,-0.275331388
 5,1.5234217921,0.\C,-1.1324289076,-0.5035609588,0.\H,-0.7720199837,-1.
 5330008675,0.\H,-1.768166182,-0.3613261508,0.8776976814\H,-1.768166182
 ,-0.3613261508,-0.8776976814\\Version=AM64L-G09RevD.01\State=1-A'\HF=-

 Normal termination of Gaussian 09 at Fri Jul  9 19:20:36 2021.

 ---------------------------------------------------------------------
 #P Geom=AllCheck Guess=TCheck SCRF=Check GenChk RwB97XD/def2TZVP Freq
 ---------------------------------------------------------------------

 Structure from the checkpoint file:  "m1_00_115-07-10_C3H6_wB97XD.chk"
 ---------------------------------------
 The PBEPBE optimization and frequencies
 ---------------------------------------
 Charge =  0 Multiplicity = 1

                         Standard orientation:
 ---------------------------------------------------------------------
 Center     Atomic      Atomic             Coordinates (Angstroms)
 Number     Number       Type             X           Y           Z
 ---------------------------------------------------------------------
      1          6           0        0.000000    0.472225    0.000000
      2          6           0        1.284138    0.150778    0.000000
      3          1           0        2.057745    0.908317    0.000000
      4          1           0        1.608437   -0.884571    0.000000
      5          1           0       -0.276526    1.523475    0.000000
      6          6           0       -1.131574   -0.504372    0.000000
      7          1           0       -0.770125   -1.533448    0.000000
      8          1           0       -1.767455   -0.362780    0.877698
      9          1           0       -1.767455   -0.362780   -0.877698
 ---------------------------------------------------------------------

 SCF Done:  E(RwB97XD) =  -117.910065474     A.U. after    1 cycles

 The electronic state is 1-A'.
 Alpha  occ. eigenvalues --  -10.28686 -10.27778 -10.27081  -0.88867  -0.78352
 Alpha  occ. eigenvalues --   -0.64612  -0.55686  -0.50818  -0.50030  -0.45529
 Alpha  occ. eigenvalues --   -0.42721  -0.34000
 Alpha virt. eigenvalues --    0.08464   0.12799   0.15669   0.16791   0.19261
 Alpha virt. eigenvalues --    0.19580   0.21190   0.24821   0.28613   0.28742
 Alpha virt. eigenvalues --    0.29364   0.33567   0.33952   0.36388   0.40076

 Mulliken charges:
               1
     1  C   -0.104010
     2  C   -0.296869
     3  H    0.123269
     4  H    0.117160
     5  H    0.113972
     6  C   -0.300432
     7  H    0.109073
     8  H    0.118919
     9  H    0.118919
 Sum of Mulliken charges =   0.00000

 Dipole moment (field-independent basis, Debye):
    X=             -0.4078    Y=             -0.0381    Z=              0.0000  Tot=              0.4095
 Quadrupole moment (field-independent basis, Debye-Ang):
   XX=            -19.0692   YY=            -18.9524   ZZ=            -21.8087
   XY=             -0.2229   XZ=              0.0000   YZ=              0.0000

  Exact polarizability:  49.802  -0.233  34.568   0.000   0.000  27.960
 Approx polarizability:  49.491  -2.639  35.838   0.000   0.000  30.541

                      1                      2                      3
                     A"                     A'                     A"
 Frequencies --    201.1516               435.0782               596.5558
 Red. masses --      1.1598                 1.9582                 1.1883
 Frc consts  --      0.0276                 0.2184                 0.2492
 IR Inten    --      0.4657                 1.0059                13.4691

                      4                      5                      6
                     A'                     A'                     A"
 Frequencies --    936.8167               955.5035               960.8912
 Red. masses --      2.4223                 1.1465                 1.3145
 Frc consts  --      1.2525                 0.6167                 0.7151
 IR Inten    --      3.3079                 3.3149                52.4214

                      7                      8                      9
                     A"                     A"                     A'
 Frequencies --   1036.4380              1081.4374              1201.0743
 Red. masses --      1.0588                 1.5634                 1.7855
 Frc consts  --      0.6701                 1.0773                 1.5176
 IR Inten    --     10.5653                 2.9184                 0.3718

                     10                     11                     12
                     A'                     A'                     A'
 Frequencies --   1338.1480              1412.8569              1457.9918
 Red. masses --      1.2409                 1.2206                 1.1974
 Frc consts  --      1.3091                 1.4355                 1.4997
 IR Inten    --      0.0452                 2.6116                 0.8159

                     13                     14                     15
                     A"                     A'                     A'
 Frequencies --   1483.6552              1498.7984              1741.1763
 Red. masses --      1.0437                 1.0601                 4.7006
 Frc consts  --      1.3536                 1.4031                 8.3963
 IR Inten    --      8.3139                17.2573                15.7689

                     16                     17                     18
                     A'                     A"                     A'
 Frequencies --   3044.0315              3103.3362              3129.1557
 Red. masses --      1.0363                 1.0998                 1.1000
 Frc consts  --      5.6577                 6.2408                 6.3458
 IR Inten    --     22.1456                16.3460                 8.7820

                     19                     20                     21
                     A'                     A'                     A'
 Frequencies --   3149.7023              3161.3549              3240.9987
 Red. masses --      1.0616                 1.0920                 1.1155
 Frc consts  --      6.2053                 6.4304                 6.9036
 IR Inten    --     19.5866                11.3979                14.7904

 - Thermochemistry -
 -------------------
 Temperature   298.150 Kelvin.  Pressure   1.00000 Atm.
 Atom     1 has atomic number  6 and mass  12.00000

 Molecular mass:    42.04695 amu.
 Principal axes and moments of inertia in atomic units:
                           1         2         3
     Eigenvalues --    38.27866 192.66128 219.84991
           X            0.95966  -0.28117   0.00000
           Y            0.28117   0.95966   0.00000
           Z            0.00000   0.00000   1.00000
 This molecule is an asymmetric top.
 Rotational symmetry number  1.
 Rotational temperatures (Kelvin)      2.26272     0.44957     0.39397
 Rotational constants (GHZ):          47.14745     9.36743     8.20897
 Zero-point vibrational energy     210340.3 (Joules/Mol)
                                   50.27254 (Kcal/Mol)
 Warning -- explicit consideration of   3 degrees of freedom as
           vibrations may cause significant error
 Vibrational temperatures:    289.41   625.98   858.31  1347.87  1374.75
          (Kelvin)           1382.51  1491.20  1555.95  1728.08  1925.29
                             2032.78  2097.72  2134.65  2156.43  2505.16
                             4379.68  4465.00  4502.15  4531.71  4548.48
                             4663.07

 Zero-point correction=                           0.080114 (Hartree/Particle)
 Thermal correction to Energy=                    0.084188
 Thermal correction to Enthalpy=                  0.085132
 Thermal correction to Gibbs Free Energy=         0.055113
 Sum of electronic and zero-point Energies=           -117.829951
 Sum of electronic and thermal Energies=              -117.825877
 Sum of electronic and thermal Enthalpies=            -117.824933
 Sum of electronic and thermal Free Energies=         -117.854952

                     E (Thermal)             CV                S
                      KCal/Mol        Cal/Mol-Kelvin    Cal/Mol-Kelvin
 Total                   52.829             12.880             63.180
 Electronic               0.000              0.000              0.000
 Translational            0.889              2.981             37.136
 Rotational               0.889              2.981             22.010
 Vibrational             51.051              6.918              4.034
 Vibration     1          0.638              1.838              2.123
 Vibration     2          0.796              1.394              0.842
 Vibration     3          0.954              1.039              0.456

 Optimization completed.
    -- Stationary point found.

 1\1\GINC-CN506-06-R\Freq\RwB97XD\def2TZVP\C3H6\MINENKY\09-Jul-2021\0\\
 #P Geom=AllCheck Guess=TCheck SCRF=Check GenChk RwB97XD/def2TZVP Freq\
 \The PBEPBE optimization and frequencies\\0,1\C,0.0001319457,0.4718925
 342,0.\C,1.2839442031,0.1491482163,0.\H,2.0583166847,0.9059041565,0.\H
 ,1.6071968102,-0.8865285713,0.\H,-0.2753313885,1.5234217921,0.\C,-1.13
 24289076,-0.5035609588,0.\H,-0.7720199837,-1.5330008675,0.\H,-1.768166
 182,-0.3613261508,0.8776976814\H,-1.768166182,-0.3613261508,-0.8776976
 814\\Version=AM64L-G09RevD.01\State=1-A'\HF=-117.9100655\RMSD=2.955e-0

 Normal termination of Gaussian 09 at Fri Jul  9 19:21:24 2021.
