 Gaussian 09, Revision D.01,
 Gaussian 09:  AM64L-G09RevD.01 24-Apr-2013

 ----------------------------------------------------------------------
 #P wB97XD/def2tzvp opt=(tight) freq integral(Grid=ultrafine) # SCF(Max
 Cycle=380) 5d 7f GFPrint
 ----------------------------------------------------------------------

 ---------------------------------------
 The PBEPBE optimization and frequencies
 ---------------------------------------
 Symbolic Z-matrix:
 Charge =  0 Multiplicity = 1

 SCF Done:  E(RwB97XD) =  -157.220670360     A.U. after   11 cycles
 SCF Done:  E(RwB97XD) =  -157.220719936     A.U. after    8 cycles
 SCF Done:  E(RwB97XD) =  -157.220721170     A.U. after    6 cycles
 SCF Done:  E(RwB97XD) =  -157.220721733     A.U. after    7 cycles
 SCF Done:  E(RwB97XD) =  -157.220721809     A.U. after    6 cycles
 SCF Done:  E(RwB97XD) =  -157.220721824     A.U. after    6 cycles
 Optimization completed.
    -- Stationary point found.

 1\1\GINC-CN506-07-R\FOpt\RwB97XD\def2TZVP\C4H8\MINENKY\09-Jul-2021\0\\
 #P wB97XD/def2tzvp opt=(tight) freq integral(Grid=ultrafine) # SCF(Max
 Cycle=380) 5d 7f GFPrint\\The PBEPBE optimization and frequencies\\0,1
 \C,-0.8139184141,0.7057873443,0.1269590481\C,-0.705787313,-0.813918382
 9,-0.1269593819\C,0.705787313,0.8139184454,-0.1269593819\C,0.813918414
 1,-0.7057872818,0.1269590481\H,-1.4793123382,1.2827820559,-0.514676376
 6\H,-1.0605591422,0.91966121,1.167966256\H,-1.2827820246,-1.479312307,
 0.5146760428\H,-0.9196611787,-1.0605591109,-1.1679665898\H,1.479312338

 Normal termination of Gaussian 09 at Fri Jul  9 19:23:28 2021.

 ---------------------------------------------------------------------
 #P Geom=AllCheck Guess=TCheck SCRF=Check GenChk RwB97XD/def2TZVP Freq
 ---------------------------------------------------------------------

 Structure from the checkpoint file:  "m1_00_287-23-00_C4H8_wB97XD.chk"
 ---------------------------------------
 The PBEPBE optimization and frequencies
 ---------------------------------------
 Charge =  0 Multiplicity = 1

                         Standard orientation:
 ---------------------------------------------------------------------
 Center     Atomic      Atomic             Coordinates (Angstroms)
 Number     Number       Type             X           Y           Z
 ---------------------------------------------------------------------
      1          6           0       -0.761774   -0.761774   -0.126959
      2          6           0       -0.761774    0.761774    0.126959
      3          6           0        0.761774   -0.761774    0.126959
      4          6           0        0.761774    0.761774   -0.126959
      5          1           0       -1.384539   -1.384539    0.514676
      6          1           0       -0.992613   -0.992613   -1.167966
      7          1           0       -1.384539    1.384539   -0.514676
      8          1           0       -0.992613    0.992613    1.167966
      9          1           0        1.384539    1.384539    0.514676
     10          1           0        0.992613    0.992613   -1.167966
     11          1           0        1.384539   -1.384539   -0.514676
     12          1           0        0.992613   -0.992613    1.167966
 ---------------------------------------------------------------------

 SCF Done:  E(RwB97XD) =  -157.220721824     A.U. after    1 cycles

 Unable to determine electronic state:  an orbital has unidentified symmetry.
 Alpha  occ. eigenvalues --  -10.27412 -10.27394 -10.27394 -10.27374  -0.94104
 Alpha  occ. eigenvalues --   -0.74996  -0.74996  -0.63650  -0.56671  -0.56223
 Alpha  occ. eigenvalues --   -0.46654  -0.46654  -0.43487  -0.39249  -0.38374
 Alpha  occ. eigenvalues --   -0.38374
 Alpha virt. eigenvalues --    0.11794   0.13773   0.14650   0.14650   0.18511
 Alpha virt. eigenvalues --    0.21383   0.21810   0.21810   0.23073   0.23073
 Alpha virt. eigenvalues --    0.28520   0.28665   0.28738   0.29243   0.31383

 Mulliken charges:
               1
     1  C   -0.181479
     2  C   -0.181479
     3  C   -0.181479
     4  C   -0.181479
     5  H    0.091777
     6  H    0.089701
     7  H    0.091777
     8  H    0.089701
     9  H    0.091777
    10  H    0.089701
    11  H    0.091777
    12  H    0.089701
 Sum of Mulliken charges =   0.00000

 Dipole moment (field-independent basis, Debye):
    X=              0.0000    Y=              0.0000    Z=              0.0000  Tot=              0.0000
 Quadrupole moment (field-independent basis, Debye-Ang):
   XX=            -27.2329   YY=            -27.2329   ZZ=            -25.6373
   XY=              0.0000   XZ=              0.0000   YZ=              0.0000

  Exact polarizability:  47.741   0.000  47.741   0.000   0.000  42.692
 Approx polarizability:  48.353   0.000  48.353   0.000   0.000  47.443

                      1                      2                      3
                     ?A                     ?B                     ?C
 Frequencies --    196.8351               638.1133               766.2369
 Red. masses --      1.4870                 1.5743                 1.1858
 Frc consts  --      0.0339                 0.3777                 0.4102
 IR Inten    --      0.0000                 2.7028                 0.2203

                      4                      5                      6
                     ?C                     ?B                     ?C
 Frequencies --    766.2369               895.9515               935.2751
 Red. masses --      1.1858                 1.9561                 1.9945
 Frc consts  --      0.4102                 0.9252                 1.0279
 IR Inten    --      0.2203                 0.0010                 2.9123

                      7                      8                      9
                     ?C                      A                      B
 Frequencies --    935.2751               965.3974               977.0673
 Red. masses --      1.9945                 2.4405                 1.0079
 Frc consts  --      1.0279                 1.3401                 0.5669
 IR Inten    --      2.9123                 0.0000                 0.0000

                     10                     11                     12
                     ?A                     ?A                      A
 Frequencies --   1036.8770              1183.0461              1184.7426
 Red. masses --      3.8183                 2.0544                 1.2601
 Frc consts  --      2.4186                 1.6941                 1.0421
 IR Inten    --      0.0000                 0.0000                 0.0000

                     13                     14                     15
                     ?C                     ?C                      A
 Frequencies --   1259.9563              1259.9563              1269.0800
 Red. masses --      1.2644                 1.2644                 1.1568
 Frc consts  --      1.1827                 1.1827                 1.0977
 IR Inten    --      0.2189                 0.2189                 0.0000

                     16                     17                     18
                      B                     ?C                     ?C
 Frequencies --   1271.0344              1302.9716              1302.9716
 Red. masses --      1.3823                 1.5294                 1.5294
 Frc consts  --      1.3157                 1.5298                 1.5298
 IR Inten    --      0.0000                 2.4978                 2.4978

                     19                     20                     21
                     ?C                     ?C                     ?B
 Frequencies --   1490.2385              1490.2385              1493.5202
 Red. masses --      1.0922                 1.0922                 1.0796
 Frc consts  --      1.4291                 1.4291                 1.4188
 IR Inten    --      1.7169                 1.7169                 3.9149

                     22                     23                     24
                     ?A                     ?B                     ?C
 Frequencies --   1530.5533              3072.9497              3074.7558
 Red. masses --      1.1453                 1.0568                 1.0584
 Frc consts  --      1.5808                 5.8795                 5.8952
 IR Inten    --      0.0000                12.0144                75.5540

                     25                     26                     27
                     ?C                     ?A                     ?A
 Frequencies --   3074.7558              3080.6061              3115.0382
 Red. masses --      1.0584                 1.0683                 1.1046
 Frc consts  --      5.8952                 5.9733                 6.3154
 IR Inten    --     75.5540                 0.0000                 0.0000

                     28                     29                     30
                     ?C                     ?C                     ?B
 Frequencies --   3128.3188              3128.3188              3145.6289
 Red. masses --      1.1085                 1.1085                 1.1079
 Frc consts  --      6.3918                 6.3918                 6.4592
 IR Inten    --     19.7361                19.7361                88.3748

 - Thermochemistry -
 -------------------
 Temperature   298.150 Kelvin.  Pressure   1.00000 Atm.
 Atom     1 has atomic number  6 and mass  12.00000

 Molecular mass:    56.06260 amu.
 Principal axes and moments of inertia in atomic units:
                           1         2         3
     Eigenvalues --   167.46495 167.46495 282.50072
           X            0.70711   0.70711   0.00000
           Y            0.70711  -0.70711   0.00000
           Z            0.00000   0.00000   1.00000
 This molecule is an oblate symmetric top.
 Rotational symmetry number  2.
 Rotational temperatures (Kelvin)      0.51721     0.51721     0.30660
 Rotational constants (GHZ):          10.77683    10.77683     6.38845
 Zero-point vibrational energy     292917.3 (Joules/Mol)
                                   70.00891 (Kcal/Mol)
 Warning -- explicit consideration of   1 degrees of freedom as
           vibrations may cause significant error
 Vibrational temperatures:    283.20   918.10  1102.44  1102.44  1289.07
          (Kelvin)           1345.65  1345.65  1388.99  1405.78  1491.83
                             1702.14  1704.58  1812.79  1812.79  1825.92
                             1828.73  1874.68  1874.68  2144.12  2144.12
                             2148.84  2202.12  4421.28  4423.88  4423.88
                             4432.30  4481.84  4500.95  4500.95  4525.85

 Zero-point correction=                           0.111566 (Hartree/Particle)
 Thermal correction to Energy=                    0.115675
 Thermal correction to Enthalpy=                  0.116619
 Thermal correction to Gibbs Free Energy=         0.086107
 Sum of electronic and zero-point Energies=           -157.109156
 Sum of electronic and thermal Energies=              -157.105047
 Sum of electronic and thermal Enthalpies=            -157.104103
 Sum of electronic and thermal Free Energies=         -157.134615

                     E (Thermal)             CV                S
                      KCal/Mol        Cal/Mol-Kelvin    Cal/Mol-Kelvin
 Total                   72.587             14.434             64.217
 Electronic               0.000              0.000              0.000
 Translational            0.889              2.981             37.993
 Rotational               0.889              2.981             22.209
 Vibrational             70.810              8.472              4.015
 Vibration     1          0.636              1.844              2.162

 Optimization completed.
    -- Stationary point found.

 1\1\GINC-CN506-07-R\Freq\RwB97XD\def2TZVP\C4H8\MINENKY\09-Jul-2021\0\\
 #P Geom=AllCheck Guess=TCheck SCRF=Check GenChk RwB97XD/def2TZVP Freq\
 \The PBEPBE optimization and frequencies\\0,1\C,-0.8139184141,0.705787
 3443,0.1269590481\C,-0.705787313,-0.8139183829,-0.1269593819\C,0.70578
 7313,0.8139184454,-0.1269593819\C,0.8139184141,-0.7057872818,0.1269590
 481\H,-1.4793123382,1.2827820559,-0.5146763766\H,-1.0605591422,0.91966
 121,1.167966256\H,-1.2827820246,-1.479312307,0.5146760428\H,-0.9196611
 787,-1.0605591109,-1.1679665898\H,1.4793123382,-1.2827819934,-0.514676

 Normal termination of Gaussian 09 at Fri Jul  9 19:24:55 2021.
