 Gaussian 09, Revision D.01,
 Gaussian 09:  AM64L-G09RevD.01 24-Apr-2013

 ----------------------------------------------------------------------
 #P wB97XD/def2tzvp opt=(tight) freq integral(Grid=ultrafine) # SCF(Max
 Cycle=380) 5d 7f GFPrint
 ----------------------------------------------------------------------

 ---------------------------------------
 The PBEPBE optimization and frequencies
 ---------------------------------------
 Symbolic Z-matrix:
 Charge =  0 Multiplicity = 1

 SCF Done:  E(RwB97XD) =  -1229.13183039     A.U. after   15 cycles
 SCF Done:  E(RwB97XD) =  -1229.13696900     A.U. after   13 cycles
 SCF Done:  E(RwB97XD) =  -1229.13744575     A.U. after   12 cycles
 SCF Done:  E(RwB97XD) =  -1229.13746085     A.U. after    9 cycles
 SCF Done:  E(RwB97XD) =  -1229.13746211     A.U. after    8 cycles
 SCF Done:  E(RwB97XD) =  -1229.13746214     A.U. after    6 cycles
 SCF Done:  E(RwB97XD) =  -1229.13746215     A.U. after    4 cycles
 Optimization completed.
    -- Stationary point found.
 Normal termination of Gaussian 09 at Sat Jul 27 18:14:46 2019.

 ---------------------------------------------------------------------
 #P Geom=AllCheck Guess=TCheck SCRF=Check GenChk RwB97XD/def2TZVP Freq
 ---------------------------------------------------------------------

 Structure from the checkpoint file:  "m1_00_120836-13-7-C32H16_wB97XD.chk"
 ---------------------------------------
 The PBEPBE optimization and frequencies
 ---------------------------------------
 Charge =  0 Multiplicity = 1

                         Standard orientation:
 ---------------------------------------------------------------------
 Center     Atomic      Atomic             Coordinates (Angstroms)
 Number     Number       Type             X           Y           Z
 ---------------------------------------------------------------------
      1          6           0        1.303303   -1.336494    0.000000
      2          6           0       -2.494174    1.984087    0.000000
      3          6           0       -1.326394    2.749074    0.000000
      4          6           0       -0.237620    4.907012    0.000000
      5          6           0       -1.373518    4.174244    0.000000
      6          6           0        1.041672    4.280552    0.000000
      7          6           0        3.450248    4.464861    0.000000
      8          6           0        2.235310    5.057099    0.000000
      9          6           0        3.573461    3.044083    0.000000
     10          6           0        3.773497    0.270348    0.000000
     11          6           0        4.925006    1.055905    0.000000
     12          6           0        4.831274    2.423982    0.000000
     13          6           0        2.509843    0.834587    0.000000
     14          6           0        2.404184    2.247992    0.000000
     15          6           0        1.126483    2.886726    0.000000
     16          6           0       -0.068395    2.100043    0.000000
     17          6           0        0.000000    0.693076    0.000000
     18          6           0        1.281193    0.021121    0.000000
     19          6           0        0.119500   -2.131480    0.000000
     20          6           0        0.178421   -3.508230    0.000000
     21          6           0       -2.334930   -2.241238    0.000000
     22          6           0       -1.151851   -1.484252    0.000000
     23          6           0       -1.189519   -0.060193    0.000000
     24          6           0       -2.448494    0.604521    0.000000
     25          6           0       -3.638104   -0.191030    0.000000
     26          6           0       -3.584794   -1.537224    0.000000
     27          6           0       -0.983097   -4.292474    0.000000
     28          6           0       -2.260012   -3.666317    0.000000
     29          6           0       -3.405398   -4.503529    0.000000
     30          6           0       -3.293489   -5.862408    0.000000
     31          6           0       -2.023675   -6.478392    0.000000
     32          6           0       -0.901210   -5.710183    0.000000
     33          1           0        2.241985   -1.873943    0.000000
     34          1           0       -3.455383    2.486025    0.000000
     35          1           0       -0.283241    5.989647    0.000000
     36          1           0       -2.342378    4.659099    0.000000
     37          1           0        4.354545    5.061536    0.000000
     38          1           0        2.150491    6.137363    0.000000
     39          1           0        3.892176   -0.803846    0.000000
     40          1           0        5.895577    0.576452    0.000000
     41          1           0        5.723235    3.038840    0.000000
     42          1           0        1.144340   -4.001171    0.000000
     43          1           0       -4.595050    0.317202    0.000000
     44          1           0       -4.511031   -2.093210    0.000000
     45          1           0       -4.393507   -4.066317    0.000000
     46          1           0       -4.185852   -6.475330    0.000000
     47          1           0       -1.948599   -7.558279    0.000000
     48          1           0        0.080367   -6.169286    0.000000
 ---------------------------------------------------------------------

 SCF Done:  E(RwB97XD) =  -1229.13746215     A.U. after    1 cycles

 The electronic state is 1-A'.
 Alpha  occ. eigenvalues --  -10.30725 -10.30628 -10.30546 -10.30508 -10.30401
 Alpha  occ. eigenvalues --  -10.30312 -10.30304 -10.30285 -10.30228 -10.30209
 Alpha  occ. eigenvalues --  -10.30176 -10.30141 -10.30138 -10.30132 -10.30112
 Alpha  occ. eigenvalues --  -10.30102 -10.29345 -10.29278 -10.29261 -10.29247
 Alpha  occ. eigenvalues --  -10.29231 -10.29207 -10.29204 -10.29197 -10.29169
 Alpha  occ. eigenvalues --  -10.29164 -10.29159 -10.29138 -10.29126 -10.29101
 Alpha  occ. eigenvalues --  -10.29071 -10.29012  -1.01597  -0.99742  -0.97714
 Alpha  occ. eigenvalues --   -0.96499  -0.94587  -0.93755  -0.91135  -0.90314
 Alpha  occ. eigenvalues --   -0.88621  -0.87552  -0.86098  -0.84896  -0.84116
 Alpha  occ. eigenvalues --   -0.83394  -0.82123  -0.79489  -0.75877  -0.74238
 Alpha  occ. eigenvalues --   -0.73775  -0.72942  -0.71883  -0.70870  -0.69953
 Alpha  occ. eigenvalues --   -0.67940  -0.66138  -0.64110  -0.63486  -0.62543
 Alpha  occ. eigenvalues --   -0.61779  -0.60526  -0.59536  -0.58361  -0.57569
 Alpha  occ. eigenvalues --   -0.56895  -0.55704  -0.54976  -0.54294  -0.53431
 Alpha  occ. eigenvalues --   -0.52883  -0.52813  -0.51964  -0.51378  -0.50763
 Alpha  occ. eigenvalues --   -0.50538  -0.50465  -0.49594  -0.49414  -0.48736
 Alpha  occ. eigenvalues --   -0.48046  -0.47850  -0.47536  -0.46634  -0.46593
 Alpha  occ. eigenvalues --   -0.45484  -0.44388  -0.44352  -0.43918  -0.43054
 Alpha  occ. eigenvalues --   -0.42895  -0.41446  -0.40116  -0.39936  -0.39387
 Alpha  occ. eigenvalues --   -0.39131  -0.36889  -0.36390  -0.34219  -0.32419
 Alpha  occ. eigenvalues --   -0.31889  -0.30569  -0.28446  -0.24228
 Alpha virt. eigenvalues --   -0.03612   0.00590   0.02787   0.02933   0.03995
 Alpha virt. eigenvalues --    0.05845   0.07366   0.08905   0.11693   0.12071
 Alpha virt. eigenvalues --    0.12421   0.12641   0.13005   0.13494   0.13672

 Mulliken charges:
               1
     1  C   -0.369158
     2  C   -0.308640
     3  C    0.196495
     4  C   -0.183223
     5  C   -0.189754
     6  C    0.187695
     7  C   -0.180469
     8  C   -0.173108
     9  C    0.157346
    10  C   -0.157242
    11  C   -0.085515
    12  C   -0.182222
    13  C    0.019875
    14  C   -0.081390
    15  C   -0.040121
    16  C    0.004532
    17  C    0.034642
    18  C    0.192977
    19  C    0.206960
    20  C   -0.338923
    21  C    0.191549
    22  C   -0.008833
    23  C    0.044891
    24  C    0.192015
    25  C   -0.212133
    26  C   -0.243734
    27  C    0.151473
    28  C    0.139398
    29  C   -0.238929
    30  C   -0.095542
    31  C   -0.106095
    32  C   -0.199103
    33  H    0.092916
    34  H    0.099481
    35  H    0.105229
    36  H    0.105669
    37  H    0.105277
    38  H    0.104829
    39  H    0.093734
    40  H    0.112343
    41  H    0.107269
    42  H    0.100769
    43  H    0.102540
    44  H    0.095322
    45  H    0.104868
    46  H    0.116588
    47  H    0.117500
    48  H    0.109953
 Sum of Mulliken charges =   0.00000

 Dipole moment (field-independent basis, Debye):
    X=              0.0685    Y=              0.0260    Z=              0.0000  Tot=              0.0733
 Quadrupole moment (field-independent basis, Debye-Ang):
   XX=           -155.1340   YY=           -154.8792   ZZ=           -191.9368
   XY=              0.3574   XZ=              0.0000   YZ=              0.0000

  Exact polarizability: 480.328 108.395 667.267   0.000   0.000 155.526
 Approx polarizability: 559.939  47.682 708.556   0.000   0.000 222.263

                      1                      2                      3
                     A"                     A"                     A"
 Frequencies --     30.4987                44.9564                76.5453
 Red. masses --      5.4465                 4.9706                 5.0672
 Frc consts  --      0.0030                 0.0059                 0.0175
 IR Inten    --      0.0539                 0.3819                 0.0703

                      4                      5                      6
                     A"                     A"                     A'
 Frequencies --    100.1835               133.9147               146.1193
 Red. masses --      4.1790                 5.1267                 5.7407
 Frc consts  --      0.0247                 0.0542                 0.0722
 IR Inten    --      1.0169                 0.7755                 0.6441

                      7                      8                      9
                     A"                     A"                     A"
 Frequencies --    162.1936               195.6401               210.6072
 Red. masses --      4.3165                 4.5553                 3.8456
 Frc consts  --      0.0669                 0.1027                 0.1005
 IR Inten    --      0.0483                 5.0275                 0.0650

                     10                     11                     12
                     A"                     A'                     A"
 Frequencies --    237.9724               249.7950               279.4898
 Red. masses --      5.1478                 6.1407                 4.4317
 Frc consts  --      0.1718                 0.2258                 0.2040
 IR Inten    --      0.0012                 0.4509                 0.1350

                     13                     14                     15
                     A'                     A"                     A"
 Frequencies --    280.2571               325.4698               337.2571
 Red. masses --      7.0078                 4.3268                 4.0154
 Frc consts  --      0.3243                 0.2700                 0.2691
 IR Inten    --      0.0679                 0.6789                 0.0133

                     16                     17                     18
                     A'                     A"                     A'
 Frequencies --    359.5150               362.3384               389.1549
 Red. masses --      6.7411                 5.1672                 5.8809
 Frc consts  --      0.5134                 0.3997                 0.5247
 IR Inten    --      1.1008                 3.3393                 0.2418

                     19                     20                     21
                     A'                     A"                     A'
 Frequencies --    420.1087               425.3893               460.0943
 Red. masses --      7.1823                 4.1868                 5.2632
 Frc consts  --      0.7469                 0.4464                 0.6564
 IR Inten    --      0.2284                 0.0039                 1.4548

                     22                     23                     24
                     A"                     A"                     A'
 Frequencies --    472.4250               484.3417               493.1376
 Red. masses --      3.8095                 3.1018                 5.9434
 Frc consts  --      0.5009                 0.4287                 0.8516
 IR Inten    --      0.1868                 4.8572                 0.6802

                     25                     26                     27
                     A"                     A'                     A'
 Frequencies --    519.8064               522.8985               530.6254
 Red. masses --      3.5254                 7.0330                 6.3956
 Frc consts  --      0.5612                 1.1330                 1.0610
 IR Inten    --      0.1897                 0.3675                 1.1286

                     28                     29                     30
                     A"                     A'                     A"
 Frequencies --    538.1152               546.9904               549.8663
 Red. masses --      3.3857                 5.3350                 3.1962
 Frc consts  --      0.5776                 0.9405                 0.5694
 IR Inten    --      5.1005                 1.0935                 0.3127

                     31                     32                     33
                     A'                     A'                     A"
 Frequencies --    564.1003               568.5487               589.9326
 Red. masses --      6.2311                 7.2425                 3.8236
 Frc consts  --      1.1682                 1.3794                 0.7840
 IR Inten    --      0.0912                11.4623                 2.7071

                     34                     35                     36
                     A"                     A'                     A'
 Frequencies --    603.0656               614.2085               635.5021
 Red. masses --      3.7884                 6.6514                 6.4049
 Frc consts  --      0.8118                 1.4784                 1.5240
 IR Inten    --      0.0026                 0.0074                 1.0862

                     37                     38                     39
                     A"                     A"                     A'
 Frequencies --    654.5391               659.4248               661.2830
 Red. masses --      3.7416                 3.7143                 6.6060
 Frc consts  --      0.9445                 0.9516                 1.7020
 IR Inten    --      5.9704                 3.3653                 3.3485

                     40                     41                     42
                     A'                     A"                     A'
 Frequencies --    703.1543               712.9724               719.6456
 Red. masses --      7.1102                 3.2000                 6.4320
 Frc consts  --      2.0712                 0.9584                 1.9626
 IR Inten    --      0.2225                17.8843                 0.2427

                     43                     44                     45
                     A'                     A"                     A"
 Frequencies --    752.9528               757.5021               765.9948
 Red. masses --      5.7747                 2.5663                 1.7365
 Frc consts  --      1.9289                 0.8676                 0.6003
 IR Inten    --      1.6898                 1.2537                22.1789

                     46                     47                     48
                     A"                     A"                     A'
 Frequencies --    774.1383               787.5021               790.0634
 Red. masses --      1.9486                 1.4585                 5.6181
 Frc consts  --      0.6880                 0.5329                 2.0662
 IR Inten    --     57.8723                11.6589                 3.6388

                     49                     50                     51
                     A"                     A'                     A"
 Frequencies --    792.1717               795.9856               839.8997
 Red. masses --      1.6263                 6.0822                 2.0922
 Frc consts  --      0.6013                 2.2705                 0.8696
 IR Inten    --      1.5314                11.2863                 3.1288

                     52                     53                     54
                     A"                     A'                     A"
 Frequencies --    843.2696               861.5420               865.3137
 Red. masses --      1.9721                 6.2266                 1.5426
 Frc consts  --      0.8263                 2.7231                 0.6805
 IR Inten    --      3.2337                 3.4102                 0.4609

                     55                     56                     57
                     A"                     A"                     A'
 Frequencies --    869.9517               887.0350               890.4379
 Red. masses --      1.8537                 2.9622                 4.8565
 Frc consts  --      0.8266                 1.3732                 2.2687
 IR Inten    --     41.8091                 0.7075                 3.0125

                     58                     59                     60
                     A"                     A"                     A"
 Frequencies --    895.3907               921.5422               925.9235
 Red. masses --      2.3950                 1.6957                 1.6802
 Frc consts  --      1.1313                 0.8484                 0.8487
 IR Inten    --      2.5505                22.4834                28.0015

                     61                     62                     63
                     A'                     A"                     A"
 Frequencies --    934.8079               936.1892               952.7934
 Red. masses --      6.0146                 1.7308                 6.3542
 Frc consts  --      3.0967                 0.8938                 3.3987
 IR Inten    --      0.0269                14.3024                 0.2246

                     64                     65                     66
                     A'                     A"                     A"
 Frequencies --    960.1141               971.0631               984.8934
 Red. masses --      6.3283                 1.3523                 1.3000
 Frc consts  --      3.4370                 0.7513                 0.7430
 IR Inten    --      3.2162                 2.5613                 0.5374

                     67                     68                     69
                     A'                     A"                     A"
 Frequencies --    985.3507               987.7976               990.0462
 Red. masses --      6.1817                 1.3106                 1.3194
 Frc consts  --      3.5362                 0.7534                 0.7620
 IR Inten    --      3.2649                 0.0276                 0.2720

                     70                     71                     72
                     A"                     A"                     A'
 Frequencies --    997.0684               999.8108              1027.7134
 Red. masses --      1.3234                 1.2879                 6.2224
 Frc consts  --      0.7751                 0.7585                 3.8722
 IR Inten    --      0.0257                 0.2428                 0.3863

                     73                     74                     75
                     A'                     A'                     A'
 Frequencies --   1061.1917              1086.5816              1091.9224
 Red. masses --      2.2277                 4.1552                 4.2457
 Frc consts  --      1.4781                 2.8904                 2.9825
 IR Inten    --      7.6075                 0.9499                 0.0716

                     76                     77                     78
                     A'                     A'                     A'
 Frequencies --   1126.8636              1156.3728              1160.8827
 Red. masses --      1.9338                 1.8444                 2.1479
 Frc consts  --      1.4468                 1.4531                 1.7054
 IR Inten    --      4.6762                 2.3916                 0.0862

                     79                     80                     81
                     A'                     A'                     A'
 Frequencies --   1169.3374              1181.1749              1188.5977
 Red. masses --      1.7669                 1.6373                 1.3098
 Frc consts  --      1.4234                 1.3459                 1.0902
 IR Inten    --      0.5895                 2.7787                 0.6327

                     82                     83                     84
                     A'                     A'                     A'
 Frequencies --   1201.0068              1206.6031              1219.4390
 Red. masses --      1.2247                 1.3687                 1.3877
 Frc consts  --      1.0408                 1.1741                 1.2158
 IR Inten    --      2.2090                 2.5497                 3.6654

                     85                     86                     87
                     A'                     A'                     A'
 Frequencies --   1238.6886              1240.1504              1259.3062
 Red. masses --      1.5149                 1.8974                 1.7347
 Frc consts  --      1.3695                 1.7194                 1.6208
 IR Inten    --      1.5223                 3.9934                 0.7655

                     88                     89                     90
                     A'                     A'                     A'
 Frequencies --   1273.3014              1287.6531              1298.0514
 Red. masses --      1.9089                 2.3990                 1.5839
 Frc consts  --      1.8235                 2.3435                 1.5724
 IR Inten    --      2.6556                14.9776                 2.2769

                     91                     92                     93
                     A'                     A'                     A'
 Frequencies --   1308.8762              1329.6660              1336.5001
 Red. masses --      2.3360                 3.0508                 3.0182
 Frc consts  --      2.3579                 3.1779                 3.1764
 IR Inten    --      2.4847                 2.8862                 1.2854

                     94                     95                     96
                     A'                     A'                     A'
 Frequencies --   1355.7611              1375.4164              1392.2278
 Red. masses --      2.7375                 4.3748                 3.8923
 Frc consts  --      2.9646                 4.8761                 4.4450
 IR Inten    --      0.6788                 0.4448                 2.7992

                     97                     98                     99
                     A'                     A'                     A'
 Frequencies --   1401.0261              1404.3616              1430.1218
 Red. masses --      4.5987                 3.2274                 5.9136
 Frc consts  --      5.3184                 3.7502                 7.1260
 IR Inten    --      2.6626                16.5494                 1.2640

                    100                    101                    102
                     A'                     A'                     A'
 Frequencies --   1436.7001              1447.4345              1451.4426
 Red. masses --      3.4224                 3.9987                 4.6337
 Frc consts  --      4.1621                 4.9359                 5.7515
 IR Inten    --      1.8436                 1.6486                 1.7806

                    103                    104                    105
                     A'                     A'                     A'
 Frequencies --   1458.6955              1472.6978              1483.1278
 Red. masses --      2.6043                 2.5514                 3.3024
 Frc consts  --      3.2648                 3.2603                 4.2800
 IR Inten    --      0.3276                 0.5449                 2.3132

                    106                    107                    108
                     A'                     A'                     A'
 Frequencies --   1494.0454              1509.3316              1523.3856
 Red. masses --      2.9267                 4.6797                 3.8673
 Frc consts  --      3.8491                 6.2811                 5.2879
 IR Inten    --      0.4108                 8.3497                 1.8339

                    109                    110                    111
                     A'                     A'                     A'
 Frequencies --   1528.6450              1535.8955              1564.2608
 Red. masses --      5.1131                 4.3421                 3.8722
 Frc consts  --      7.0396                 6.0350                 5.5824
 IR Inten    --      3.5606                 0.6141                 3.4509

                    112                    113                    114
                     A'                     A'                     A'
 Frequencies --   1574.6840              1595.2269              1641.6353
 Red. masses --      4.5383                 6.1715                 6.6928
 Frc consts  --      6.6303                 9.2531                10.6270
 IR Inten    --      1.4144                 2.4952                 0.0571

                    115                    116                    117
                     A'                     A'                     A'
 Frequencies --   1649.9158              1665.7632              1668.5970
 Red. masses --      7.0640                 7.3538                 6.4307
 Frc consts  --     11.3299                12.0224                10.5490
 IR Inten    --      3.9480                 2.5661                 4.9197

                    118                    119                    120
                     A'                     A'                     A'
 Frequencies --   1672.8316              1684.9568              1700.2333
 Red. masses --      6.0323                 7.2689                 6.0569
 Frc consts  --      9.9458                12.1589                10.3161
 IR Inten    --      0.5701                 1.8159                 3.1329

                    121                    122                    123
                     A'                     A'                     A'
 Frequencies --   1709.5229              1713.0067              3185.9993
 Red. masses --      7.0450                 7.8061                 1.0905
 Frc consts  --     12.1306                13.4960                 6.5216
 IR Inten    --      9.8943                 1.7488                 4.3344

                    124                    125                    126
                     A'                     A'                     A'
 Frequencies --   3187.1272              3188.1273              3189.1906
 Red. masses --      1.0888                 1.0879                 1.0873
 Frc consts  --      6.5162                 6.5150                 6.5154
 IR Inten    --      2.3738                 5.8731                 3.4528

                    127                    128                    129
                     A'                     A'                     A'
 Frequencies --   3190.4778              3192.9029              3194.9102
 Red. masses --      1.0867                 1.0871                 1.0891
 Frc consts  --      6.5176                 6.5299                 6.5501
 IR Inten    --      2.5078                 0.2235                 8.1142

                    130                    131                    132
                     A'                     A'                     A'
 Frequencies --   3201.3089              3206.8315              3207.6335
 Red. masses --      1.0898                 1.0967                 1.0936
 Frc consts  --      6.5805                 6.6450                 6.6297
 IR Inten    --     10.7606                 3.0872                26.9740

                    133                    134                    135
                     A'                     A'                     A'
 Frequencies --   3208.3483              3214.4397              3216.5407
 Red. masses --      1.0952                 1.0930                 1.0953
 Frc consts  --      6.6423                 6.6542                 6.6764
 IR Inten    --     54.0833                 2.7599                21.8476

                    136                    137                    138
                     A'                     A'                     A'
 Frequencies --   3226.6805              3232.1392              3242.7460
 Red. masses --      1.0962                 1.0911                 1.0908
 Frc consts  --      6.7242                 6.7155                 6.7579
 IR Inten    --      6.9486                11.1910                22.6573

 - Thermochemistry -
 -------------------
 Temperature   298.150 Kelvin.  Pressure   1.00000 Atm.
 Atom     1 has atomic number  6 and mass  12.00000

 Molecular mass:   400.12520 amu.
 Principal axes and moments of inertia in atomic units:
                           1         2         3
     Eigenvalues --  5627.87071********************
           X            0.50108   0.86540   0.00000
           Y            0.86540  -0.50108   0.00000
           Z            0.00000   0.00000   1.00000
 This molecule is an asymmetric top.
 Rotational symmetry number  1.
 Warning -- assumption of classical behavior for rotation
           may cause significant error
 Rotational temperatures (Kelvin)      0.01539     0.00451     0.00349
 Rotational constants (GHZ):           0.32068     0.09406     0.07273
 Zero-point vibrational energy     990297.8 (Joules/Mol)
                                  236.68686 (Kcal/Mol)
 Warning -- explicit consideration of  35 degrees of freedom as
           vibrations may cause significant error
 Vibrational temperatures:     43.88    64.68   110.13   144.14   192.67
          (Kelvin)            210.23   233.36   281.48   303.02   342.39
                              359.40   402.12   403.23   468.28   485.24
                              517.26   521.32   559.91   604.44   612.04
                              661.97   679.71   696.86   709.51   747.88
                              752.33   763.45   774.23   787.00   791.13
                              811.61   818.01   848.78   867.68   883.71
                              914.34   941.73   948.76   951.44  1011.68
                             1025.81  1035.41  1083.33  1089.88  1102.09
                             1113.81  1133.04  1136.72  1139.76  1145.24
                             1208.43  1213.28  1239.57  1244.99  1251.66
                             1276.24  1281.14  1288.27  1325.89  1332.20
                             1344.98  1346.97  1370.86  1381.39  1397.14
                             1417.04  1417.70  1421.22  1424.45  1434.56
                             1438.50  1478.65  1526.82  1563.35  1571.03
                             1621.30  1663.76  1670.25  1682.41  1699.45
                             1710.12  1727.98  1736.03  1754.50  1782.19
                             1784.30  1811.86  1831.99  1852.64  1867.60
                             1883.18  1913.09  1922.92  1950.64  1978.91
                             2003.10  2015.76  2020.56  2057.62  2067.09
                             2082.53  2088.30  2098.73  2118.88  2133.89
                             2149.60  2171.59  2191.81  2199.38  2209.81
                             2250.62  2265.62  2295.17  2361.94  2373.86
                             2396.66  2400.74  2406.83  2424.27  2446.25
                             2459.62  2464.63  4583.94  4585.56  4587.00
                             4588.53  4590.38  4593.87  4596.76  4605.96
                             4613.91  4615.06  4616.09  4624.86  4627.88
                             4642.47  4650.32  4665.58

 Zero-point correction=                           0.377185 (Hartree/Particle)
 Thermal correction to Energy=                    0.396651
 Thermal correction to Enthalpy=                  0.397595
 Thermal correction to Gibbs Free Energy=         0.330299
 Sum of electronic and zero-point Energies=          -1228.760278
 Sum of electronic and thermal Energies=             -1228.740811
 Sum of electronic and thermal Enthalpies=           -1228.739867
 Sum of electronic and thermal Free Energies=        -1228.807163

                     E (Thermal)             CV                S
                      KCal/Mol        Cal/Mol-Kelvin    Cal/Mol-Kelvin
 Total                  248.902             86.476            141.638
 Electronic               0.000              0.000              0.000
 Translational            0.889              2.981             43.851
 Rotational               0.889              2.981             36.237
 Vibrational            247.125             80.514             61.550
 Vibration     1          0.594              1.984              5.797
 Vibration     2          0.595              1.979              5.028
 Vibration     3          0.599              1.965              3.978
 Vibration     4          0.604              1.949              3.451
 Vibration     5          0.613              1.919              2.889
 Vibration     6          0.617              1.907              2.722
 Vibration     7          0.622              1.889              2.524
 Vibration     8          0.636              1.846              2.174
 Vibration     9          0.643              1.825              2.038
 Vibration    10          0.656              1.782              1.818
 Vibration    11          0.663              1.763              1.732
 Vibration    12          0.680              1.712              1.537
 Vibration    13          0.680              1.710              1.532
 Vibration    14          0.710              1.625              1.282
 Vibration    15          0.718              1.601              1.225
 Vibration    16          0.734              1.556              1.124
 Vibration    17          0.736              1.550              1.112
 Vibration    18          0.757              1.493              1.003
 Vibration    19          0.783              1.427              0.892
 Vibration    20          0.787              1.415              0.874
 Vibration    21          0.818              1.339              0.766
 Vibration    22          0.829              1.311              0.731
 Vibration    23          0.840              1.285              0.698
 Vibration    24          0.849              1.265              0.676
 Vibration    25          0.875              1.206              0.610
 Vibration    26          0.878              1.199              0.603
 Vibration    27          0.886              1.182              0.586
 Vibration    28          0.893              1.166              0.569
 Vibration    29          0.902              1.146              0.550
 Vibration    30          0.905              1.140              0.544
 Vibration    31          0.920              1.109              0.516
 Vibration    32          0.925              1.099              0.507
 Vibration    33          0.947              1.053              0.467
 Vibration    34          0.961              1.025              0.444
 Vibration    35          0.974              1.002              0.426

 Optimization completed.
    -- Stationary point found.
 Normal termination of Gaussian 09 at Sun Jul 28 01:23:24 2019.
