 Gaussian 09, Revision D.01,
 Gaussian 09:  AM64L-G09RevD.01 24-Apr-2013

 ----------------------------------------------------------------------
 #P wB97XD/def2tzvp opt=(tight) freq integral(Grid=ultrafine) # SCF(Max
 Cycle=380) 5d 7f GFPrint
 ----------------------------------------------------------------------

 ---------------------------------------
 The PBEPBE optimization and frequencies
 ---------------------------------------
 Symbolic Z-matrix:
 Charge =  0 Multiplicity = 1

 SCF Done:  E(RwB97XD) =  -1229.14799853     A.U. after   14 cycles
 SCF Done:  E(RwB97XD) =  -1229.15174676     A.U. after   12 cycles
 SCF Done:  E(RwB97XD) =  -1229.15184413     A.U. after    9 cycles
 SCF Done:  E(RwB97XD) =  -1229.15185229     A.U. after    8 cycles
 SCF Done:  E(RwB97XD) =  -1229.15185265     A.U. after    6 cycles
 SCF Done:  E(RwB97XD) =  -1229.15185267     A.U. after    5 cycles
 SCF Done:  E(RwB97XD) =  -1229.15185267     A.U. after    5 cycles
 SCF Done:  E(RwB97XD) =  -1229.15185268     A.U. after    4 cycles
 SCF Done:  E(RwB97XD) =  -1229.15185268     A.U. after    4 cycles
 SCF Done:  E(RwB97XD) =  -1229.15185268     A.U. after    3 cycles
 Optimization completed.
    -- Stationary point found.
 Normal termination of Gaussian 09 at Mon Jul 29 15:28:29 2019.

 ---------------------------------------------------------------------
 #P Geom=AllCheck Guess=TCheck SCRF=Check GenChk RwB97XD/def2TZVP Freq
 ---------------------------------------------------------------------

 Structure from the checkpoint file:  "m1_00_190-74-9-C32H16_wB97XD.chk"
 ---------------------------------------
 The PBEPBE optimization and frequencies
 ---------------------------------------
 Charge =  0 Multiplicity = 1

                         Standard orientation:
 ---------------------------------------------------------------------
 Center     Atomic      Atomic             Coordinates (Angstroms)
 Number     Number       Type             X           Y           Z
 ---------------------------------------------------------------------
      1          6           0       -5.384386    0.680543    0.000020
      2          6           0       -5.384386   -0.680543    0.000016
      3          6           0       -4.171964   -1.408385    0.000007
      4          6           0       -4.171964    1.408385    0.000015
      5          6           0       -2.953398    0.709245    0.000006
      6          6           0       -2.953398   -0.709245    0.000003
      7          6           0       -1.718503   -1.420360   -0.000005
      8          6           0       -1.718503    1.420360   -0.000001
      9          6           0       -4.156414    2.831725    0.000015
     10          6           0       -4.156414   -2.831725    0.000000
     11          6           0       -0.479782    0.722080   -0.000006
     12          6           0       -0.479782   -0.722080   -0.000006
     13          6           0        0.722292   -1.434896   -0.000009
     14          6           0        0.722292    1.434896   -0.000015
     15          6           0       -1.738977    2.827298   -0.000003
     16          6           0       -1.738977   -2.827298   -0.000011
     17          6           0        1.992724    0.714246   -0.000013
     18          6           0        1.992724   -0.714246   -0.000004
     19          6           0        3.205750   -1.379138    0.000011
     20          6           0        3.205750    1.379138   -0.000015
     21          6           0        0.669576    2.844446   -0.000021
     22          6           0        0.669576   -2.844446   -0.000018
     23          6           0       -0.515439    3.518958   -0.000015
     24          6           0       -2.987024    3.512705    0.000006
     25          6           0       -0.515439   -3.518958   -0.000020
     26          6           0       -2.987024   -3.512705   -0.000009
     27          6           0        4.431786    0.708883   -0.000005
     28          6           0        4.431786   -0.708883    0.000012
     29          6           0        5.675458    1.396991   -0.000007
     30          6           0        5.675458   -1.396991    0.000029
     31          6           0        6.848556   -0.708750    0.000027
     32          6           0        6.848556    0.708750    0.000008
     33          1           0       -6.319959    1.227207    0.000027
     34          1           0       -6.319959   -1.227207    0.000020
     35          1           0       -5.101622    3.361487    0.000023
     36          1           0       -5.101622   -3.361487    0.000002
     37          1           0        3.237229   -2.459560    0.000024
     38          1           0        3.237229    2.459560   -0.000023
     39          1           0        1.583129    3.420131   -0.000032
     40          1           0        1.583129   -3.420131   -0.000027
     41          1           0       -0.522857    4.602429   -0.000019
     42          1           0       -2.981145    4.596206    0.000006
     43          1           0       -0.522857   -4.602429   -0.000028
     44          1           0       -2.981145   -4.596206   -0.000014
     45          1           0        5.672363    2.480733   -0.000022
     46          1           0        5.672363   -2.480733    0.000044
     47          1           0        7.791334   -1.240931    0.000041
     48          1           0        7.791334    1.240931    0.000006
 ---------------------------------------------------------------------

 SCF Done:  E(RwB97XD) =  -1229.15185268     A.U. after    1 cycles

 The electronic state is 1-A.
 Alpha  occ. eigenvalues --  -10.30628 -10.30587 -10.30536 -10.30528 -10.30476
 Alpha  occ. eigenvalues --  -10.30446 -10.30270 -10.30270 -10.30188 -10.30152
 Alpha  occ. eigenvalues --  -10.30103 -10.30096 -10.30042 -10.30042 -10.29999
 Alpha  occ. eigenvalues --  -10.29953 -10.29284 -10.29284 -10.29251 -10.29229
 Alpha  occ. eigenvalues --  -10.29223 -10.29207 -10.29206 -10.29204 -10.29204
 Alpha  occ. eigenvalues --  -10.29177 -10.29177 -10.29174 -10.29147 -10.29133
 Alpha  occ. eigenvalues --  -10.29133 -10.29108  -1.01698  -0.99325  -0.98016
 Alpha  occ. eigenvalues --   -0.97234  -0.93920  -0.93329  -0.91859  -0.89913
 Alpha  occ. eigenvalues --   -0.88777  -0.87276  -0.86388  -0.84870  -0.84602
 Alpha  occ. eigenvalues --   -0.82773  -0.81791  -0.80257  -0.75624  -0.73574
 Alpha  occ. eigenvalues --   -0.73563  -0.73031  -0.72959  -0.70702  -0.69698
 Alpha  occ. eigenvalues --   -0.68174  -0.65605  -0.64114  -0.63683  -0.62970
 Alpha  occ. eigenvalues --   -0.62319  -0.61177  -0.59345  -0.58092  -0.57007
 Alpha  occ. eigenvalues --   -0.55661  -0.55319  -0.54842  -0.54652  -0.53896
 Alpha  occ. eigenvalues --   -0.53173  -0.52906  -0.51751  -0.51705  -0.50708
 Alpha  occ. eigenvalues --   -0.50521  -0.50406  -0.50089  -0.49827  -0.49163
 Alpha  occ. eigenvalues --   -0.48384  -0.47458  -0.47403  -0.47208  -0.46025
 Alpha  occ. eigenvalues --   -0.44930  -0.44415  -0.44131  -0.43264  -0.43252
 Alpha  occ. eigenvalues --   -0.42735  -0.41617  -0.40988  -0.39927  -0.39412
 Alpha  occ. eigenvalues --   -0.38204  -0.38074  -0.34742  -0.34703  -0.33206
 Alpha  occ. eigenvalues --   -0.32360  -0.29653  -0.27756  -0.25834
 Alpha virt. eigenvalues --   -0.01976   0.00113   0.01321   0.03709   0.04250
 Alpha virt. eigenvalues --    0.06273   0.07333   0.09006   0.10672   0.12067
 Alpha virt. eigenvalues --    0.12278   0.12645   0.13579   0.13679   0.13692

 Mulliken charges:
               1
     1  C   -0.167599
     2  C   -0.167599
     3  C    0.157449
     4  C    0.157449
     5  C   -0.048363
     6  C   -0.048363
     7  C   -0.024257
     8  C   -0.024257
     9  C   -0.172691
    10  C   -0.172691
    11  C   -0.013838
    12  C   -0.013838
    13  C    0.099662
    14  C    0.099662
    15  C    0.181216
    16  C    0.181216
    17  C    0.141226
    18  C    0.141226
    19  C   -0.281239
    20  C   -0.281238
    21  C   -0.179946
    22  C   -0.179947
    23  C   -0.200012
    24  C   -0.174046
    25  C   -0.200012
    26  C   -0.174046
    27  C    0.181107
    28  C    0.181107
    29  C   -0.236245
    30  C   -0.236245
    31  C   -0.098390
    32  C   -0.098390
    33  H    0.105256
    34  H    0.105256
    35  H    0.105896
    36  H    0.105896
    37  H    0.096236
    38  H    0.096236
    39  H    0.093919
    40  H    0.093919
    41  H    0.101636
    42  H    0.106401
    43  H    0.101636
    44  H    0.106401
    45  H    0.108549
    46  H    0.108549
    47  H    0.118074
    48  H    0.118074
 Sum of Mulliken charges =   0.00000

 Dipole moment (field-independent basis, Debye):
    X=              0.0331    Y=              0.0000    Z=              0.0000  Tot=              0.0331
 Quadrupole moment (field-independent basis, Debye-Ang):
   XX=           -154.3264   YY=           -155.4807   ZZ=           -191.9094
   XY=              0.0000   XZ=              0.0000   YZ=             -0.0001

  Exact polarizability: 656.127   0.000 430.815   0.000   0.000 155.386
 Approx polarizability: 660.783   0.000 548.108  -0.001   0.000 222.025

                      1                      2                      3
                      A                      A                      A
 Frequencies --     26.7073                46.7504                86.3282
 Red. masses --      5.7881                 4.1587                 5.2626
 Frc consts  --      0.0024                 0.0054                 0.0231
 IR Inten    --      0.0766                 0.0000                 1.3541

                      4                      5                      6
                      A                      A                      A
 Frequencies --     91.7457               127.3928               132.8894
 Red. masses --      4.5913                 4.9226                 5.5588
 Frc consts  --      0.0228                 0.0471                 0.0578
 IR Inten    --      0.0000                 3.4195                 0.2629

                      7                      8                      9
                      A                      A                      A
 Frequencies --    137.9060               219.0045               233.2848
 Red. masses --      4.6822                 4.4016                 5.3186
 Frc consts  --      0.0525                 0.1244                 0.1705
 IR Inten    --      0.0033                 0.0000                 1.1199

                     10                     11                     12
                      A                      A                      A
 Frequencies --    249.5033               250.7418               293.4070
 Red. masses --      7.5796                 3.8940                 4.1128
 Frc consts  --      0.2780                 0.1442                 0.2086
 IR Inten    --      0.0037                 0.0000                 0.1365

                     13                     14                     15
                      A                      A                      A
 Frequencies --    294.9614               300.2665               346.2681
 Red. masses --      5.9222                 4.5561                 4.4486
 Frc consts  --      0.3036                 0.2420                 0.3143
 IR Inten    --      0.0056                 0.0000                 0.0514

                     16                     17                     18
                      A                      A                      A
 Frequencies --    355.9248               381.5727               387.0541
 Red. masses --      4.4615                 7.6905                 6.3849
 Frc consts  --      0.3330                 0.6597                 0.5636
 IR Inten    --      0.0000                 0.0173                 1.8905

                     19                     20                     21
                      A                      A                      A
 Frequencies --    418.0711               435.9799               437.7593
 Red. masses --      7.1840                 3.8070                 5.2515
 Frc consts  --      0.7398                 0.4263                 0.5929
 IR Inten    --      0.6275                 1.6841                 2.5994

                     22                     23                     24
                      A                      A                      A
 Frequencies --    479.1824               481.9949               488.1267
 Red. masses --      3.0807                 2.9631                 7.7142
 Frc consts  --      0.4168                 0.4056                 1.0829
 IR Inten    --      2.9979                11.8384                 0.1595

                     25                     26                     27
                      A                      A                      A
 Frequencies --    493.9405               506.9518               533.7398
 Red. masses --      4.0230                 4.6372                 4.8789
 Frc consts  --      0.5783                 0.7022                 0.8189
 IR Inten    --      0.0000                 0.1552                 0.0643

                     28                     29                     30
                      A                      A                      A
 Frequencies --    540.3401               546.5590               560.0354
 Red. masses --      3.4734                 7.7489                 7.3317
 Frc consts  --      0.5975                 1.3638                 1.3548
 IR Inten    --      0.0000                 4.9789                 0.2899

                     31                     32                     33
                      A                      A                      A
 Frequencies --    567.6714               569.6970               603.0656
 Red. masses --      3.9180                 3.9734                 3.5101
 Frc consts  --      0.7439                 0.7598                 0.7522
 IR Inten    --      0.0000                10.3707                26.9921

                     34                     35                     36
                      A                      A                      A
 Frequencies --    614.4324               644.0923               645.2155
 Red. masses --      4.9983                 6.8416                 4.5663
 Frc consts  --      1.1118                 1.6723                 1.1200
 IR Inten    --      0.4148                 4.0270                 0.0000

                     37                     38                     39
                      A                      A                      A
 Frequencies --    661.2142               667.7424               684.4289
 Red. masses --      6.9879                 7.9296                 3.7592
 Frc consts  --      1.8000                 2.0831                 1.0375
 IR Inten    --      0.0110                 0.3844                 0.0000

                     40                     41                     42
                      A                      A                      A
 Frequencies --    689.9680               703.2661               703.4500
 Red. masses --      6.9003                 5.5792                 2.7724
 Frc consts  --      1.9354                 1.6258                 0.8083
 IR Inten    --      1.1373                 0.7049                 0.1342

                     43                     44                     45
                      A                      A                      A
 Frequencies --    753.1389               768.2806               775.3318
 Red. masses --      3.8921                 1.3023                 6.7080
 Frc consts  --      1.3007                 0.4529                 2.3758
 IR Inten    --      0.0000                35.8366                 5.4454

                     46                     47                     48
                      A                      A                      A
 Frequencies --    783.3936               791.3150               798.8864
 Red. masses --      1.8307                 1.3144                 1.9893
 Frc consts  --      0.6620                 0.4849                 0.7480
 IR Inten    --      0.0000                 0.2743                 0.0000

                     49                     50                     51
                      A                      A                      A
 Frequencies --    802.8956               817.2876               829.8278
 Red. masses --      6.0903                 6.8128                 5.0946
 Frc consts  --      2.3132                 2.6812                 2.0670
 IR Inten    --     10.4549                 4.2197                 0.0398

                     52                     53                     54
                      A                      A                      A
 Frequencies --    836.7856               847.4408               856.8538
 Red. masses --      2.1875                 7.6327                 1.6955
 Frc consts  --      0.9025                 3.2296                 0.7334
 IR Inten    --     19.9568                 1.3811                 0.0000

                     55                     56                     57
                      A                      A                      A
 Frequencies --    862.2937               871.9258               876.7997
 Red. masses --      3.3876                 1.6463                 2.9623
 Frc consts  --      1.4841                 0.7374                 1.3418
 IR Inten    --      1.0813                 0.0000                 0.0000

                     58                     59                     60
                      A                      A                      A
 Frequencies --    884.1097               906.5841               912.8624
 Red. masses --      1.6781                 1.6162                 4.5062
 Frc consts  --      0.7728                 0.7826                 2.2125
 IR Inten    --     81.7010                63.5419                 0.0000

                     61                     62                     63
                      A                      A                      A
 Frequencies --    929.7188               933.3893               966.6275
 Red. masses --      3.0990                 5.7266                 5.6778
 Frc consts  --      1.5782                 2.9395                 3.1257
 IR Inten    --      0.0000                 0.0176                 0.5580

                     64                     65                     66
                      A                      A                      A
 Frequencies --    972.2067               972.4547               983.5761
 Red. masses --      1.3086                 1.3150                 1.3124
 Frc consts  --      0.7287                 0.7327                 0.7481
 IR Inten    --      0.0000                 0.4663                 0.0000

                     67                     68                     69
                      A                      A                      A
 Frequencies --    988.7964               993.3804               996.9809
 Red. masses --      1.3558                 1.3279                 1.3372
 Frc consts  --      0.7810                 0.7721                 0.7831
 IR Inten    --      1.6834                 0.0196                 0.0000

                     70                     71                     72
                      A                      A                      A
 Frequencies --    998.5024              1002.7717              1030.6399
 Red. masses --      4.9216                 1.2880                 4.9141
 Frc consts  --      2.8911                 0.7631                 3.0754
 IR Inten    --      0.0172                 0.0000                 0.0396

                     73                     74                     75
                      A                      A                      A
 Frequencies --   1035.7227              1046.0617              1119.5424
 Red. masses --      3.7017                 2.2487                 2.9374
 Frc consts  --      2.3396                 1.4498                 2.1692
 IR Inten    --      0.2384                 4.5046                 1.5155

                     76                     77                     78
                      A                      A                      A
 Frequencies --   1159.9072              1160.0879              1177.1473
 Red. masses --      2.1132                 1.8621                 1.3339
 Frc consts  --      1.6751                 1.4765                 1.0890
 IR Inten    --      0.0435                 0.4854                 0.0281

                     79                     80                     81
                      A                      A                      A
 Frequencies --   1179.1557              1189.0527              1189.7110
 Red. masses --      1.5256                 2.0093                 1.2964
 Frc consts  --      1.2498                 1.6738                 1.0811
 IR Inten    --      8.4621                 3.3326                 4.4376

                     82                     83                     84
                      A                      A                      A
 Frequencies --   1203.7532              1212.4967              1234.1511
 Red. masses --      1.2283                 1.6694                 2.1002
 Frc consts  --      1.0486                 1.4460                 1.8847
 IR Inten    --      0.3470                 1.1723                 2.8993

                     85                     86                     87
                      A                      A                      A
 Frequencies --   1243.2264              1255.5281              1257.1755
 Red. masses --      1.8056                 2.0032                 1.6340
 Frc consts  --      1.6443                 1.8605                 1.5216
 IR Inten    --      0.1370                 1.4406                 4.4772

                     88                     89                     90
                      A                      A                      A
 Frequencies --   1265.8731              1274.5292              1298.2025
 Red. masses --      1.8382                 1.7545                 2.5393
 Frc consts  --      1.7355                 1.6792                 2.5214
 IR Inten    --      0.1370                 3.2087                13.4053

                     91                     92                     93
                      A                      A                      A
 Frequencies --   1302.1731              1349.1534              1353.0237
 Red. masses --      3.2473                 1.6554                 3.5223
 Frc consts  --      3.2442                 1.7753                 3.7992
 IR Inten    --      0.4123                 5.7605                 7.6151

                     94                     95                     96
                      A                      A                      A
 Frequencies --   1361.9583              1381.8567              1383.5937
 Red. masses --      2.4214                 5.5055                 3.8033
 Frc consts  --      2.6464                 6.1940                 4.2897
 IR Inten    --      3.3147                 1.1598                 6.9761

                     97                     98                     99
                      A                      A                      A
 Frequencies --   1390.2660              1416.5831              1429.5275
 Red. masses --      3.8771                 5.0878                 3.3670
 Frc consts  --      4.4152                 6.0154                 4.0539
 IR Inten    --      5.5115                 2.7403                 0.7087

                    100                    101                    102
                      A                      A                      A
 Frequencies --   1441.0727              1451.1539              1454.1115
 Red. masses --      4.7745                 3.4609                 4.9519
 Frc consts  --      5.8419                 4.2941                 6.1690
 IR Inten    --      0.9970                 0.0980                 1.2023

                    103                    104                    105
                      A                      A                      A
 Frequencies --   1467.9333              1470.6394              1479.1718
 Red. masses --      2.3831                 4.3919                 3.7335
 Frc consts  --      3.0255                 5.5965                 4.8128
 IR Inten    --      0.0336                 5.9956                 0.3309

                    106                    107                    108
                      A                      A                      A
 Frequencies --   1489.2145              1501.3368              1512.8093
 Red. masses --      3.4466                 3.3938                 4.8934
 Frc consts  --      4.5035                 4.5071                 6.5982
 IR Inten    --      3.5550                 4.5274                 0.6128

                    109                    110                    111
                      A                      A                      A
 Frequencies --   1524.6881              1554.9942              1555.9479
 Red. masses --      3.0296                 3.9475                 3.6783
 Frc consts  --      4.1495                 5.6238                 5.2467
 IR Inten    --      0.0533                20.9922                 4.1169

                    112                    113                    114
                      A                      A                      A
 Frequencies --   1577.3687              1590.4826              1634.7420
 Red. masses --      4.8313                 4.1275                 5.3981
 Frc consts  --      7.0824                 6.1517                 8.4995
 IR Inten    --      4.8012                 0.0080                 2.9590

                    115                    116                    117
                      A                      A                      A
 Frequencies --   1636.0993              1652.4077              1676.2052
 Red. masses --      9.1813                 7.6171                 5.9988
 Frc consts  --     14.4801                12.2539                 9.9305
 IR Inten    --      0.0865                 0.9113                 2.2659

                    118                    119                    120
                      A                      A                      A
 Frequencies --   1690.3944              1690.5720              1697.3827
 Red. masses --      6.6607                 6.4741                 7.5027
 Frc consts  --     11.2136                10.9018                12.7359
 IR Inten    --      2.9843                 2.3428                 0.3295

                    121                    122                    123
                      A                      A                      A
 Frequencies --   1706.6592              1713.9518              3187.7409
 Red. masses --      7.6809                 6.4925                 1.0862
 Frc consts  --     13.1812                11.2372                 6.5034
 IR Inten    --      1.0103                 1.1700                 2.7886

                    124                    125                    126
                      A                      A                      A
 Frequencies --   3187.9728              3188.4626              3189.4493
 Red. masses --      1.0866                 1.0867                 1.0869
 Frc consts  --      6.5066                 6.5092                 6.5143
 IR Inten    --      1.0216                 1.0349                 1.1993

                    127                    128                    129
                      A                      A                      A
 Frequencies --   3191.9314              3194.7334              3194.8902
 Red. masses --      1.0888                 1.0895                 1.0896
 Frc consts  --      6.5358                 6.5518                 6.5530
 IR Inten    --      0.4949                16.1420                 0.1753

                    130                    131                    132
                      A                      A                      A
 Frequencies --   3206.5910              3207.0889              3207.3853
 Red. masses --      1.0970                 1.0944                 1.0968
 Frc consts  --      6.6456                 6.6319                 6.6479
 IR Inten    --      0.4832                15.1456                40.4176

                    133                    134                    135
                      A                      A                      A
 Frequencies --   3208.3749              3219.5738              3219.9474
 Red. masses --      1.0961                 1.0917                 1.0969
 Frc consts  --      6.6479                 6.6672                 6.7008
 IR Inten    --     47.0292                 0.2396                26.3040

                    136                    137                    138
                      A                      A                      A
 Frequencies --   3221.0221              3243.9761              3244.8620
 Red. masses --      1.0929                 1.0887                 1.0886
 Frc consts  --      6.6807                 6.7500                 6.7534
 IR Inten    --      1.9256                22.6804                 5.0064

 - Thermochemistry -
 -------------------
 Temperature   298.150 Kelvin.  Pressure   1.00000 Atm.
 Atom     1 has atomic number  6 and mass  12.00000

 Molecular mass:   400.12520 amu.
 Principal axes and moments of inertia in atomic units:
                           1         2         3
     Eigenvalues --  5871.40546********************
           X            1.00000   0.00000   0.00000
           Y            0.00000   1.00000   0.00000
           Z            0.00000   0.00000   1.00000
 This molecule is an asymmetric top.
 Rotational symmetry number  1.
 Warning -- assumption of classical behavior for rotation
           may cause significant error
 Rotational temperatures (Kelvin)      0.01475     0.00466     0.00354
 Rotational constants (GHZ):           0.30738     0.09706     0.07377
 Zero-point vibrational energy     991324.4 (Joules/Mol)
                                  236.93221 (Kcal/Mol)
 Warning -- explicit consideration of  34 degrees of freedom as
           vibrations may cause significant error
 Vibrational temperatures:     38.43    67.26   124.21   132.00   183.29
          (Kelvin)            191.20   198.42   315.10   335.64   358.98
                              360.76   422.15   424.38   432.02   498.20
                              512.10   549.00   556.88   601.51   627.28
                              629.84   689.44   693.48   702.30   710.67
                              729.39   767.93   777.43   786.38   805.77
                              816.75   819.67   867.68   884.03   926.70
                              928.32   951.34   960.73   984.74   992.71
                             1011.84  1012.11  1083.60  1105.38  1115.53
                             1127.13  1138.52  1149.42  1155.19  1175.89
                             1193.94  1203.95  1219.28  1232.82  1240.65
                             1254.51  1261.52  1272.04  1304.37  1313.40
                             1337.66  1342.94  1390.76  1398.79  1399.14
                             1415.14  1422.66  1429.25  1434.43  1436.62
                             1442.76  1482.86  1490.17  1505.05  1610.77
                             1668.85  1669.11  1693.65  1696.54  1710.78
                             1711.73  1731.93  1744.51  1775.67  1788.72
                             1806.42  1808.79  1821.31  1833.76  1867.82
                             1873.53  1941.13  1946.70  1959.55  1988.18
                             1990.68  2000.28  2038.14  2056.77  2073.38
                             2087.88  2092.14  2112.03  2115.92  2128.20
                             2142.64  2160.09  2176.59  2193.68  2237.29
                             2238.66  2269.48  2288.35  2352.03  2353.98
                             2377.44  2411.68  2432.10  2432.35  2442.15
                             2455.50  2465.99  4586.44  4586.78  4587.48
                             4588.90  4592.47  4596.50  4596.73  4613.56
                             4614.28  4614.71  4616.13  4632.24  4632.78
                             4634.33  4667.35  4668.63

 Zero-point correction=                           0.377576 (Hartree/Particle)
 Thermal correction to Energy=                    0.396991
 Thermal correction to Enthalpy=                  0.397935
 Thermal correction to Gibbs Free Energy=         0.330608
 Sum of electronic and zero-point Energies=          -1228.774277
 Sum of electronic and thermal Energies=             -1228.754862
 Sum of electronic and thermal Enthalpies=           -1228.753918
 Sum of electronic and thermal Free Energies=        -1228.821245

                     E (Thermal)             CV                S
                      KCal/Mol        Cal/Mol-Kelvin    Cal/Mol-Kelvin
 Total                  249.115             86.282            141.702
 Electronic               0.000              0.000              0.000
 Translational            0.889              2.981             43.851
 Rotational               0.889              2.981             36.233
 Vibrational            247.338             80.320             61.618
 Vibration     1          0.593              1.984              6.060
 Vibration     2          0.595              1.979              4.950
 Vibration     3          0.601              1.959              3.742
 Vibration     4          0.602              1.955              3.623
 Vibration     5          0.611              1.926              2.985
 Vibration     6          0.613              1.920              2.904
 Vibration     7          0.614              1.915              2.833
 Vibration     8          0.647              1.812              1.967
 Vibration     9          0.654              1.790              1.854
 Vibration    10          0.662              1.764              1.734
 Vibration    11          0.663              1.762              1.725
 Vibration    12          0.688              1.686              1.454
 Vibration    13          0.689              1.683              1.445
 Vibration    14          0.693              1.673              1.415
 Vibration    15          0.724              1.583              1.183
 Vibration    16          0.731              1.563              1.140
 Vibration    17          0.751              1.509              1.033
 Vibration    18          0.755              1.498              1.011
 Vibration    19          0.781              1.431              0.899
 Vibration    20          0.796              1.392              0.839
 Vibration    21          0.798              1.388              0.834
 Vibration    22          0.836              1.296              0.712
 Vibration    23          0.838              1.290              0.705
 Vibration    24          0.844              1.276              0.688
 Vibration    25          0.850              1.263              0.673
 Vibration    26          0.862              1.235              0.641
 Vibration    27          0.889              1.175              0.579
 Vibration    28          0.895              1.161              0.565
 Vibration    29          0.902              1.147              0.551
 Vibration    30          0.916              1.118              0.524
 Vibration    31          0.924              1.101              0.509
 Vibration    32          0.926              1.097              0.505
 Vibration    33          0.961              1.025              0.444
 Vibration    34          0.974              1.001              0.425

 Optimization completed.
    -- Stationary point found.
 Normal termination of Gaussian 09 at Tue Jul 30 01:13:07 2019.
