 Gaussian 09, Revision D.01,
 Gaussian 09:  AM64L-G09RevD.01 24-Apr-2013

 ----------------------------------------------------------------------
 #P wB97XD/def2tzvp opt=(tight) freq integral(Grid=ultrafine) # SCF(Max
 Cycle=380) 5d 7f GFPrint
 ----------------------------------------------------------------------

 ---------------------------------------
 The PBEPBE optimization and frequencies
 ---------------------------------------
 Symbolic Z-matrix:
 Charge =  0 Multiplicity = 1

 SCF Done:  E(RwB97XD) =  -1229.12329486     A.U. after   15 cycles
 SCF Done:  E(RwB97XD) =  -1229.12451724     A.U. after   14 cycles
 SCF Done:  E(RwB97XD) =  -1229.12743025     A.U. after   14 cycles
 SCF Done:  E(RwB97XD) =  -1229.12786554     A.U. after   13 cycles
 SCF Done:  E(RwB97XD) =  -1229.12788653     A.U. after   11 cycles
 SCF Done:  E(RwB97XD) =  -1229.12788782     A.U. after    9 cycles
 SCF Done:  E(RwB97XD) =  -1229.12788787     A.U. after    6 cycles
 SCF Done:  E(RwB97XD) =  -1229.12788789     A.U. after    5 cycles
 SCF Done:  E(RwB97XD) =  -1229.12788789     A.U. after    4 cycles
 Optimization completed.
    -- Stationary point found.

 1\1\GINC-DS503-29\FOpt\RwB97XD\def2TZVP\C32H16\MINENKY\28-Jul-2019\0\\
 #P wB97XD/def2tzvp opt=(tight) freq integral(Grid=ultrafine) # SCF(Max
 Cycle=380) 5d 7f GFPrint\\The PBEPBE optimization and frequencies\\0,1
 \C,5.0583059575,0.1949172696,-0.2781743089\C,4.4743421364,1.3935027336
 ,-0.444053663\C,3.0450222446,1.5554332244,-0.3481673073\C,2.4428172073
 ,2.7868098246,-0.4313805305\C,1.0530004248,2.933008428,-0.2769641353\C
 ,0.4373478603,4.2099443045,-0.2402971954\C,-0.8973086079,4.3319153205,
 -0.018671041\C,4.2795646306,-0.9813257473,0.0168639169\C,2.7051153363,

 Normal termination of Gaussian 09 at Sun Jul 28 10:26:40 2019.

 ---------------------------------------------------------------------
 #P Geom=AllCheck Guess=TCheck SCRF=Check GenChk RwB97XD/def2TZVP Freq
 ---------------------------------------------------------------------

 Structure from the checkpoint file:  "m1_00_120836-04-6-C32H16_wB97XD.chk"
 ---------------------------------------
 The PBEPBE optimization and frequencies
 ---------------------------------------
 Charge =  0 Multiplicity = 1

                         Standard orientation:
 ---------------------------------------------------------------------
 Center     Atomic      Atomic             Coordinates (Angstroms)
 Number     Number       Type             X           Y           Z
 ---------------------------------------------------------------------
      1          6           0       -5.061317    0.193246    0.270252
      2          6           0       -4.481565    1.393918    0.435819
      3          6           0       -3.052644    1.560473    0.341932
      4          6           0       -2.454634    2.793913    0.424828
      5          6           0       -1.065075    2.944548    0.272367
      6          6           0       -0.453587    4.223473    0.235357
      7          6           0        0.880994    4.349632    0.015628
      8          6           0       -4.278251   -0.980711   -0.022435
      9          6           0       -2.695485   -3.203426   -0.661084
     10          6           0       -4.064913   -3.318234   -0.594878
     11          6           0       -4.854731   -2.215212   -0.273768
     12          6           0       -2.068279   -1.975318   -0.393726
     13          6           0       -2.866848   -0.854489   -0.077865
     14          6           0       -2.245049    0.401186    0.125147
     15          6           0       -0.657657   -1.835344   -0.409697
     16          6           0       -0.029116   -0.657734   -0.101327
     17          6           0       -0.845967    0.514600    0.073492
     18          6           0       -0.255943    1.796709    0.112434
     19          6           0        1.431088   -0.516163   -0.031583
     20          6           0        4.205820   -0.158141   -0.361724
     21          6           0        1.976009    0.767369   -0.167454
     22          6           0        1.144185    1.936381   -0.086807
     23          6           0        1.707921    3.212049   -0.155197
     24          6           0        3.115140    3.351937   -0.383399
     25          6           0        3.910814    2.271361   -0.483489
     26          6           0        3.381862    0.945252   -0.341929
     27          6           0        2.318985   -1.614544    0.173313
     28          6           0        3.712670   -1.431449   -0.066007
     29          6           0        4.599597   -2.535865    0.054189
     30          6           0        4.158812   -3.748106    0.480443
     31          6           0        2.804002   -3.902694    0.847786
     32          6           0        1.920054   -2.877204    0.697088
     33          1           0       -6.137950    0.088727    0.334473
     34          1           0       -5.083865    2.272730    0.633687
     35          1           0       -3.065645    3.677412    0.573548
     36          1           0       -1.074557    5.101960    0.363649
     37          1           0        1.335888    5.332155   -0.029188
     38          1           0       -2.085458   -4.063225   -0.911408
     39          1           0       -4.535807   -4.272252   -0.795501
     40          1           0       -5.932683   -2.316415   -0.230550
     41          1           0       -0.080201   -2.702738   -0.692848
     42          1           0        5.266992   -0.031562   -0.544904
     43          1           0        3.528408    4.350279   -0.464554
     44          1           0        4.976230    2.381693   -0.645885
     45          1           0        5.646948   -2.378707   -0.175059
     46          1           0        4.845347   -4.578919    0.580873
     47          1           0        2.468581   -4.838835    1.275937
     48          1           0        0.906426   -3.010776    1.041500
 ---------------------------------------------------------------------

 SCF Done:  E(RwB97XD) =  -1229.12788789     A.U. after    1 cycles

 The electronic state is 1-A.
 Alpha  occ. eigenvalues --  -10.30999 -10.30831 -10.30662 -10.30483 -10.30378
 Alpha  occ. eigenvalues --  -10.30235 -10.30233 -10.30173 -10.30161 -10.30157
 Alpha  occ. eigenvalues --  -10.30149 -10.30145 -10.30109 -10.30099 -10.30092
 Alpha  occ. eigenvalues --  -10.29931 -10.29388 -10.29299 -10.29277 -10.29259
 Alpha  occ. eigenvalues --  -10.29206 -10.29192 -10.29192 -10.29183 -10.29182
 Alpha  occ. eigenvalues --  -10.29163 -10.29146 -10.29137 -10.29101 -10.29039
 Alpha  occ. eigenvalues --  -10.28999 -10.28947  -1.01691  -0.99611  -0.98090
 Alpha  occ. eigenvalues --   -0.95805  -0.95008  -0.93732  -0.90799  -0.90384
 Alpha  occ. eigenvalues --   -0.88741  -0.87723  -0.85523  -0.84955  -0.84714
 Alpha  occ. eigenvalues --   -0.82786  -0.82186  -0.79788  -0.75602  -0.73940
 Alpha  occ. eigenvalues --   -0.73603  -0.73274  -0.72125  -0.71100  -0.69142
 Alpha  occ. eigenvalues --   -0.67204  -0.66722  -0.65462  -0.62986  -0.62225
 Alpha  occ. eigenvalues --   -0.61196  -0.60311  -0.59161  -0.58680  -0.58012
 Alpha  occ. eigenvalues --   -0.56888  -0.55812  -0.55332  -0.54074  -0.53328
 Alpha  occ. eigenvalues --   -0.53066  -0.52266  -0.51564  -0.51207  -0.50969
 Alpha  occ. eigenvalues --   -0.50768  -0.50371  -0.50083  -0.49063  -0.48721
 Alpha  occ. eigenvalues --   -0.48451  -0.48049  -0.47295  -0.46627  -0.45793
 Alpha  occ. eigenvalues --   -0.45549  -0.44702  -0.44572  -0.43382  -0.43120
 Alpha  occ. eigenvalues --   -0.42371  -0.42069  -0.40191  -0.39785  -0.39333
 Alpha  occ. eigenvalues --   -0.38776  -0.37009  -0.35937  -0.34097  -0.32949
 Alpha  occ. eigenvalues --   -0.32103  -0.29717  -0.28323  -0.24325
 Alpha virt. eigenvalues --   -0.03433   0.00658   0.01531   0.03908   0.04120
 Alpha virt. eigenvalues --    0.05618   0.07988   0.09051   0.10993   0.12071
 Alpha virt. eigenvalues --    0.12347   0.12527   0.12852   0.13719   0.13793

 Mulliken charges:
               1
     1  C   -0.192259
     2  C   -0.192024
     3  C    0.177470
     4  C   -0.305723
     5  C    0.178795
     6  C   -0.183017
     7  C   -0.181380
     8  C    0.136599
     9  C   -0.221681
    10  C   -0.078349
    11  C   -0.164141
    12  C    0.225691
    13  C   -0.060604
    14  C    0.040304
    15  C   -0.473328
    16  C    0.165825
    17  C    0.024694
    18  C    0.004212
    19  C    0.092436
    20  C   -0.302334
    21  C   -0.097951
    22  C   -0.006420
    23  C    0.187333
    24  C   -0.176838
    25  C   -0.211960
    26  C    0.203511
    27  C    0.099548
    28  C    0.176300
    29  C   -0.189514
    30  C   -0.110350
    31  C   -0.093871
    32  C   -0.380773
    33  H    0.105119
    34  H    0.106343
    35  H    0.099557
    36  H    0.106349
    37  H    0.105466
    38  H    0.110550
    39  H    0.115241
    40  H    0.109315
    41  H    0.192984
    42  H    0.103478
    43  H    0.105379
    44  H    0.105363
    45  H    0.111480
    46  H    0.117773
    47  H    0.119011
    48  H    0.196391
 Sum of Mulliken charges =   0.00000

 Dipole moment (field-independent basis, Debye):
    X=              0.0626    Y=             -0.0078    Z=              0.0283  Tot=              0.0692
 Quadrupole moment (field-independent basis, Debye-Ang):
   XX=           -155.8805   YY=           -156.9655   ZZ=           -189.9258
   XY=             -0.2314   XZ=             -2.4721   YZ=              0.2612

  Exact polarizability: 562.207  26.559 523.986  -8.887   5.156 168.310
 Approx polarizability: 607.410  42.965 645.985 -20.290  11.204 238.691

                      1                      2                      3
                      A                      A                      A
 Frequencies --     45.4092                57.5491                77.1356
 Red. masses --      5.3815                 5.1230                 5.3902
 Frc consts  --      0.0065                 0.0100                 0.0189
 IR Inten    --      0.0297                 0.4076                 1.4223

                      4                      5                      6
                      A                      A                      A
 Frequencies --    105.6903               123.1994               164.9713
 Red. masses --      4.6433                 5.0164                 4.7604
 Frc consts  --      0.0306                 0.0449                 0.0763
 IR Inten    --      0.3330                 0.4508                 1.0160

                      7                      8                      9
                      A                      A                      A
 Frequencies --    180.0538               187.8714               217.8286
 Red. masses --      4.8396                 5.1990                 4.3772
 Frc consts  --      0.0924                 0.1081                 0.1224
 IR Inten    --      1.0974                 0.0196                 1.5206

                     10                     11                     12
                      A                      A                      A
 Frequencies --    252.8430               266.9857               299.7631
 Red. masses --      5.3297                 4.5113                 5.1125
 Frc consts  --      0.2008                 0.1895                 0.2707
 IR Inten    --      2.0997                 0.1471                 0.6117

                     13                     14                     15
                      A                      A                      A
 Frequencies --    312.0336               319.9872               337.5985
 Red. masses --      6.3217                 6.4205                 4.4028
 Frc consts  --      0.3626                 0.3873                 0.2957
 IR Inten    --      1.3598                 2.4579                 0.1625

                     16                     17                     18
                      A                      A                      A
 Frequencies --    344.4101               357.6613               379.0610
 Red. masses --      5.0041                 5.1762                 7.0917
 Frc consts  --      0.3497                 0.3901                 0.6004
 IR Inten    --      3.7094                 1.0130                 0.5094

                     19                     20                     21
                      A                      A                      A
 Frequencies --    407.2662               428.4564               449.9043
 Red. masses --      5.1193                 4.5371                 5.0125
 Frc consts  --      0.5003                 0.4907                 0.5978
 IR Inten    --      0.2504                 0.1711                 1.4158

                     22                     23                     24
                      A                      A                      A
 Frequencies --    470.0638               485.4739               503.0016
 Red. masses --      3.7610                 4.9012                 4.4277
 Frc consts  --      0.4896                 0.6806                 0.6600
 IR Inten    --      0.6059                 0.8477                 2.0757

                     25                     26                     27
                      A                      A                      A
 Frequencies --    515.1178               529.1949               534.6696
 Red. masses --      5.4829                 4.8219                 4.3067
 Frc consts  --      0.8572                 0.7956                 0.7254
 IR Inten    --      3.3424                 2.3801                 1.5629

                     28                     29                     30
                      A                      A                      A
 Frequencies --    545.9699               547.3824               556.5778
 Red. masses --      3.7176                 5.2815                 3.3308
 Frc consts  --      0.6529                 0.9324                 0.6079
 IR Inten    --      0.2139                 0.6570                 0.7260

                     31                     32                     33
                      A                      A                      A
 Frequencies --    580.7777               582.8983               592.7833
 Red. masses --      4.4501                 6.4281                 6.7920
 Frc consts  --      0.8844                 1.2868                 1.4062
 IR Inten    --      0.0001                 0.3824                 1.6510

                     34                     35                     36
                      A                      A                      A
 Frequencies --    603.5627               615.1742               639.2016
 Red. masses --      6.3862                 4.3491                 3.5425
 Frc consts  --      1.3707                 0.9697                 0.8528
 IR Inten    --      2.5298                 2.5778                15.2377

                     37                     38                     39
                      A                      A                      A
 Frequencies --    645.0994               648.4625               664.1830
 Red. masses --      5.8484                 5.3472                 4.2326
 Frc consts  --      1.4340                 1.3248                 1.1001
 IR Inten    --      3.4861                 8.3031                 2.4521

                     40                     41                     42
                      A                      A                      A
 Frequencies --    697.2277               713.6891               722.2703
 Red. masses --      7.4525                 6.8825                 3.3975
 Frc consts  --      2.1345                 2.0654                 1.0443
 IR Inten    --      0.9518                 5.2614                21.6431

                     43                     44                     45
                      A                      A                      A
 Frequencies --    750.1891               751.1407               775.3053
 Red. masses --      3.4570                 5.3648                 1.4984
 Frc consts  --      1.1463                 1.7834                 0.5307
 IR Inten    --      7.0285                 2.8203                 8.2875

                     46                     47                     48
                      A                      A                      A
 Frequencies --    780.0082               783.8636               788.8537
 Red. masses --      1.9641                 3.9547                 1.4662
 Frc consts  --      0.7040                 1.4317                 0.5376
 IR Inten    --     44.9087                 9.5567                 0.2957

                     49                     50                     51
                      A                      A                      A
 Frequencies --    807.4141               828.8506               830.8016
 Red. masses --      2.1125                 2.6608                 4.4017
 Frc consts  --      0.8114                 1.0770                 1.7900
 IR Inten    --      0.4564                 1.7046                 2.1700

                     52                     53                     54
                      A                      A                      A
 Frequencies --    843.5469               857.6356               872.2065
 Red. masses --      1.8619                 1.6892                 5.1937
 Frc consts  --      0.7806                 0.7320                 2.3279
 IR Inten    --     26.3907                 7.2265                 1.6955

                     55                     56                     57
                      A                      A                      A
 Frequencies --    878.3857               885.7992               889.4372
 Red. masses --      2.5514                 5.1589                 2.7894
 Frc consts  --      1.1598                 2.3850                 1.3001
 IR Inten    --      6.3767                 1.1571                 5.4357

                     58                     59                     60
                      A                      A                      A
 Frequencies --    906.2883               909.6575               922.8114
 Red. masses --      3.9690                 3.3252                 1.8726
 Frc consts  --      1.9207                 1.6212                 0.9396
 IR Inten    --      6.8228                10.6740                 1.7341

                     61                     62                     63
                      A                      A                      A
 Frequencies --    927.9260               930.9947               942.5026
 Red. masses --      1.7333                 1.7295                 5.3550
 Frc consts  --      0.8793                 0.8832                 2.8027
 IR Inten    --      2.2735                60.5061                 0.1434

                     64                     65                     66
                      A                      A                      A
 Frequencies --    958.6304               985.2157               993.3149
 Red. masses --      1.5755                 1.3168                 1.3189
 Frc consts  --      0.8530                 0.7530                 0.7667
 IR Inten    --     10.3178                 0.0219                 1.1510

                     67                     68                     69
                      A                      A                      A
 Frequencies --    994.7799               996.8936               997.5451
 Red. masses --      1.7657                 1.9205                 1.7368
 Frc consts  --      1.0295                 1.1245                 1.0183
 IR Inten    --      0.5846                 1.3608                 0.1198

                     70                     71                     72
                      A                      A                      A
 Frequencies --   1001.5749              1021.3377              1025.8938
 Red. masses --      1.3105                 4.8343                 1.4064
 Frc consts  --      0.7745                 2.9712                 0.8721
 IR Inten    --      0.1745                 1.7208                 1.4594

                     73                     74                     75
                      A                      A                      A
 Frequencies --   1063.3354              1085.1353              1108.1230
 Red. masses --      2.2096                 3.7973                 2.4506
 Frc consts  --      1.4720                 2.6345                 1.7729
 IR Inten    --      4.7707                 1.8231                 4.1292

                     76                     77                     78
                      A                      A                      A
 Frequencies --   1116.4944              1140.5094              1155.5481
 Red. masses --      2.5270                 2.1829                 1.7003
 Frc consts  --      1.8559                 1.6730                 1.3377
 IR Inten    --      0.4519                 0.1308                 0.2546

                     79                     80                     81
                      A                      A                      A
 Frequencies --   1172.5778              1185.4118              1190.1777
 Red. masses --      1.6940                 1.3801                 1.4180
 Frc consts  --      1.3723                 1.1426                 1.1835
 IR Inten    --      0.3183                 0.2690                 0.3338

                     82                     83                     84
                      A                      A                      A
 Frequencies --   1203.5402              1207.6663              1219.2849
 Red. masses --      1.3368                 1.4490                 1.3649
 Frc consts  --      1.1409                 1.2451                 1.1956
 IR Inten    --      9.1074                 6.8839                 3.6809

                     85                     86                     87
                      A                      A                      A
 Frequencies --   1219.7925              1241.8242              1263.0881
 Red. masses --      1.3231                 1.6826                 2.2947
 Frc consts  --      1.1599                 1.5288                 2.1570
 IR Inten    --      3.8769                 0.0848                 2.9917

                     88                     89                     90
                      A                      A                      A
 Frequencies --   1273.1283              1278.2581              1286.4915
 Red. masses --      1.8566                 1.8963                 2.5178
 Frc consts  --      1.7730                 1.8256                 2.4552
 IR Inten    --      0.1727                 0.8518                 6.8297

                     91                     92                     93
                      A                      A                      A
 Frequencies --   1302.6808              1323.1700              1351.5066
 Red. masses --      2.2235                 2.2912                 3.0471
 Frc consts  --      2.2231                 2.3635                 3.2792
 IR Inten    --      3.7188                 1.4956                 3.9125

                     94                     95                     96
                      A                      A                      A
 Frequencies --   1361.7979              1368.3250              1387.7907
 Red. masses --      3.9554                 3.4073                 3.1173
 Frc consts  --      4.3218                 3.7587                 3.5374
 IR Inten    --      1.5554                 6.0012                 9.5702

                     97                     98                     99
                      A                      A                      A
 Frequencies --   1400.1568              1420.5296              1423.0811
 Red. masses --      3.8685                 4.7753                 5.4241
 Frc consts  --      4.4683                 5.6774                 6.4720
 IR Inten    --      0.0247                 0.4222                 0.8051

                    100                    101                    102
                      A                      A                      A
 Frequencies --   1438.3619              1443.4999              1452.1557
 Red. masses --      3.5559                 4.5999                 3.5303
 Frc consts  --      4.3345                 5.6472                 4.3862
 IR Inten    --      0.7092                 0.6946                 0.7312

                    103                    104                    105
                      A                      A                      A
 Frequencies --   1462.4284              1464.2518              1469.2015
 Red. masses --      2.4975                 3.5481                 2.6543
 Frc consts  --      3.1470                 4.4821                 3.3757
 IR Inten    --      0.4818                 1.7567                 1.8883

                    106                    107                    108
                      A                      A                      A
 Frequencies --   1491.1647              1508.4377              1521.6815
 Red. masses --      3.4393                 3.6869                 4.9136
 Frc consts  --      4.5058                 4.9427                 6.7035
 IR Inten    --      5.7531                 8.8825                 2.2491

                    109                    110                    111
                      A                      A                      A
 Frequencies --   1533.6456              1544.1195              1547.5895
 Red. masses --      4.0898                 4.5322                 4.7246
 Frc consts  --      5.6676                 6.3668                 6.6669
 IR Inten    --      0.2080                 1.2609                 4.3649

                    112                    113                    114
                      A                      A                      A
 Frequencies --   1555.4950              1601.7360              1634.7232
 Red. masses --      4.0748                 7.2907                 6.1334
 Frc consts  --      5.8089                11.0205                 9.6570
 IR Inten    --      1.7053                 2.8710                 1.5403

                    115                    116                    117
                      A                      A                      A
 Frequencies --   1647.0219              1659.8024              1664.3439
 Red. masses --      7.0319                 6.1902                 7.0691
 Frc consts  --     11.2389                10.0477                11.5373
 IR Inten    --      0.6628                 4.5726                 0.1636

                    118                    119                    120
                      A                      A                      A
 Frequencies --   1675.7565              1678.1892              1701.3325
 Red. masses --      7.4489                 6.6831                 6.2098
 Frc consts  --     12.3244                11.0894                10.5902
 IR Inten    --      2.4251                 4.7821                 3.1218

                    121                    122                    123
                      A                      A                      A
 Frequencies --   1711.3661              1715.0282              3186.1382
 Red. masses --      7.2023                 7.5872                 1.0889
 Frc consts  --     12.4281                13.1484                 6.5129
 IR Inten    --      7.7078                 1.4823                 4.5196

                    124                    125                    126
                      A                      A                      A
 Frequencies --   3187.4230              3187.9140              3188.6204
 Red. masses --      1.0872                 1.0891                 1.0882
 Frc consts  --      6.5080                 6.5212                 6.5189
 IR Inten    --      2.9635                 2.8210                 9.1955

                    127                    128                    129
                      A                      A                      A
 Frequencies --   3189.6924              3189.7703              3191.4163
 Red. masses --      1.0866                 1.0870                 1.0874
 Frc consts  --      6.5134                 6.5160                 6.5253
 IR Inten    --      0.9223                 0.9933                 3.6085

                    130                    131                    132
                      A                      A                      A
 Frequencies --   3197.6401              3202.2810              3206.6549
 Red. masses --      1.0912                 1.0903                 1.0971
 Frc consts  --      6.5737                 6.5875                 6.6467
 IR Inten    --      8.5708                10.7285                16.4222

                    133                    134                    135
                      A                      A                      A
 Frequencies --   3207.0588              3208.8356              3215.4841
 Red. masses --      1.0968                 1.0971                 1.0970
 Frc consts  --      6.6464                 6.6554                 6.6824
 IR Inten    --     31.4180                39.9774                26.5593

                    136                    137                    138
                      A                      A                      A
 Frequencies --   3218.5055              3229.2716              3249.2612
 Red. masses --      1.0963                 1.0916                 1.0913
 Frc consts  --      6.6910                 6.7069                 6.7883
 IR Inten    --     25.6032                 2.9416                 2.7701

 - Thermochemistry -
 -------------------
 Temperature   298.150 Kelvin.  Pressure   1.00000 Atm.
 Atom     1 has atomic number  6 and mass  12.00000

 Molecular mass:   400.12520 amu.
 Principal axes and moments of inertia in atomic units:
                           1         2         3
     Eigenvalues --  8552.82673********************
           X            1.00000  -0.00244  -0.00065
           Y            0.00244   1.00000  -0.00013
           Z            0.00065   0.00013   1.00000
 This molecule is an asymmetric top.
 Rotational symmetry number  1.
 Warning -- assumption of classical behavior for rotation
           may cause significant error
 Rotational temperatures (Kelvin)      0.01013     0.00657     0.00406
 Rotational constants (GHZ):           0.21101     0.13681     0.08456
 Zero-point vibrational energy     990950.5 (Joules/Mol)
                                  236.84286 (Kcal/Mol)
 Warning -- explicit consideration of  35 degrees of freedom as
           vibrations may cause significant error
 Vibrational temperatures:     65.33    82.80   110.98   152.06   177.26
          (Kelvin)            237.36   259.06   270.30   313.41   363.78
                              384.13   431.29   448.95   460.39   485.73
                              495.53   514.59   545.38   585.96   616.45
                              647.31   676.32   698.49   723.71   741.14
                              761.39   769.27   785.53   787.56   800.79
                              835.61   838.66   852.88   868.39   885.10
                              919.67   928.15   932.99   955.61  1003.15
                             1026.84  1039.18  1079.35  1080.72  1115.49
                             1122.26  1127.80  1134.98  1161.69  1192.53
                             1195.34  1213.67  1233.94  1254.91  1263.80
                             1274.47  1279.70  1303.95  1308.79  1327.72
                             1335.08  1339.49  1356.05  1379.25  1417.50
                             1429.16  1431.26  1434.31  1435.24  1441.04
                             1469.48  1476.03  1529.90  1561.27  1594.34
                             1606.38  1640.94  1662.57  1687.08  1705.54
                             1712.40  1731.62  1737.56  1754.28  1755.01
                             1786.71  1817.30  1831.75  1839.13  1850.97
                             1874.26  1903.74  1944.51  1959.32  1968.71
                             1996.72  2014.51  2043.82  2047.49  2069.48
                             2076.87  2089.33  2104.11  2106.73  2113.85
                             2145.45  2170.30  2189.36  2206.57  2221.64
                             2226.63  2238.01  2304.54  2352.00  2369.69
                             2388.08  2394.62  2411.04  2414.54  2447.84
                             2462.27  2467.54  4584.14  4585.99  4586.69
                             4587.71  4589.25  4589.36  4591.73  4600.69
                             4607.36  4613.66  4614.24  4616.79  4626.36
                             4630.71  4646.20  4674.96

 Zero-point correction=                           0.377433 (Hartree/Particle)
 Thermal correction to Energy=                    0.396684
 Thermal correction to Enthalpy=                  0.397628
 Thermal correction to Gibbs Free Energy=         0.331383
 Sum of electronic and zero-point Energies=          -1228.750455
 Sum of electronic and thermal Energies=             -1228.731204
 Sum of electronic and thermal Enthalpies=           -1228.730260
 Sum of electronic and thermal Free Energies=        -1228.796504

                     E (Thermal)             CV                S
                      KCal/Mol        Cal/Mol-Kelvin    Cal/Mol-Kelvin
 Total                  248.923             86.193            139.424
 Electronic               0.000              0.000              0.000
 Translational            0.889              2.981             43.851
 Rotational               0.889              2.981             36.130
 Vibrational            247.146             80.231             59.442
 Vibration     1          0.595              1.979              5.008
 Vibration     2          0.596              1.974              4.540
 Vibration     3          0.599              1.964              3.962
 Vibration     4          0.605              1.945              3.347
 Vibration     5          0.610              1.930              3.050
 Vibration     6          0.623              1.885              2.492
 Vibration     7          0.629              1.867              2.328
 Vibration     8          0.633              1.857              2.249
 Vibration     9          0.646              1.814              1.977
 Vibration    10          0.664              1.758              1.711
 Vibration    11          0.672              1.734              1.616
 Vibration    12          0.692              1.674              1.418
 Vibration    13          0.700              1.651              1.352
 Vibration    14          0.706              1.635              1.310
 Vibration    15          0.718              1.600              1.223
 Vibration    16          0.723              1.587              1.192
 Vibration    17          0.733              1.560              1.132
 Vibration    18          0.749              1.515              1.043
 Vibration    19          0.772              1.454              0.936
 Vibration    20          0.790              1.408              0.864
 Vibration    21          0.809              1.361              0.796
 Vibration    22          0.827              1.316              0.737
 Vibration    23          0.842              1.282              0.695
 Vibration    24          0.858              1.243              0.651
 Vibration    25          0.870              1.217              0.621
 Vibration    26          0.884              1.185              0.589
 Vibration    27          0.890              1.173              0.577
 Vibration    28          0.901              1.149              0.553
 Vibration    29          0.903              1.145              0.550
 Vibration    30          0.912              1.125              0.531
 Vibration    31          0.937              1.073              0.484
 Vibration    32          0.940              1.068              0.480
 Vibration    33          0.950              1.047              0.462
 Vibration    34          0.962              1.024              0.444
 Vibration    35          0.975              1.000              0.424

 1\1\GINC-DS503-29\Freq\RwB97XD\def2TZVP\C32H16\MINENKY\30-Jul-2019\0\\
 #P Geom=AllCheck Guess=TCheck SCRF=Check GenChk RwB97XD/def2TZVP Freq\
 \The PBEPBE optimization and frequencies\\0,1\C,5.0583059575,0.1949172
 696,-0.2781743089\C,4.4743421364,1.3935027336,-0.444053663\C,3.0450222
 446,1.5554332244,-0.3481673073\C,2.4428172073,2.7868098246,-0.43138053
 05\C,1.0530004248,2.933008428,-0.2769641353\C,0.4373478603,4.209944304
 5,-0.2402971954\C,-0.8973086079,4.3319153205,-0.018671041\C,4.27956463
 06,-0.9813257473,0.0168639169\C,2.7051153363,-3.2086160423,0.660115110

 Normal termination of Gaussian 09 at Tue Jul 30 01:32:32 2019.
