 Gaussian 09, Revision D.01,
 Gaussian 09:  AM64L-G09RevD.01 24-Apr-2013

 ----------------------------------------------------------------------
 #P wB97XD/def2tzvp opt=(tight) freq integral(Grid=ultrafine) # SCF(Max
 Cycle=380) 5d 7f GFPrint
 ----------------------------------------------------------------------

 ---------------------------------------
 The PBEPBE optimization and frequencies
 ---------------------------------------
 Symbolic Z-matrix:
 Charge =  0 Multiplicity = 1

 SCF Done:  E(RwB97XD) =  -155.977401215     A.U. after   12 cycles
 SCF Done:  E(RwB97XD) =  -155.977461514     A.U. after    8 cycles
 SCF Done:  E(RwB97XD) =  -155.977462148     A.U. after    6 cycles
 SCF Done:  E(RwB97XD) =  -155.977462206     A.U. after    6 cycles
 Optimization completed.
    -- Stationary point found.

 1\1\GINC-CN514-06-R\FOpt\RwB97XD\def2TZVP\C4H6\MINENKY\09-Jul-2021\0\\
 #P wB97XD/def2tzvp opt=(tight) freq integral(Grid=ultrafine) # SCF(Max
 Cycle=380) 5d 7f GFPrint\\The PBEPBE optimization and frequencies\\0,1
 \C,0.,0.665601385,0.8096769505\C,0.,-0.665601385,0.8096769505\H,0.,1.4
 100934008,1.5955502089\H,0.,-1.4100934008,1.5955502089\C,0.,0.78099072
 95,-0.6975477267\C,0.,-0.7809907295,-0.6975477267\H,-0.8877428855,1.23
 83791255,-1.1385742179\H,0.8877428855,-1.2383791255,-1.1385742179\H,0.
 8877428855,1.2383791255,-1.1385742179\H,-0.8877428855,-1.2383791255,-1

 Normal termination of Gaussian 09 at Fri Jul  9 19:22:53 2021.

 ---------------------------------------------------------------------
 #P Geom=AllCheck Guess=TCheck SCRF=Check GenChk RwB97XD/def2TZVP Freq
 ---------------------------------------------------------------------

 Structure from the checkpoint file:  "m1_00_822-35-50_C4H6_wB97XD.chk"
 ---------------------------------------
 The PBEPBE optimization and frequencies
 ---------------------------------------
 Charge =  0 Multiplicity = 1

                         Standard orientation:
 ---------------------------------------------------------------------
 Center     Atomic      Atomic             Coordinates (Angstroms)
 Number     Number       Type             X           Y           Z
 ---------------------------------------------------------------------
      1          6           0        0.000000    0.665601    0.810265
      2          6           0        0.000000   -0.665601    0.810265
      3          1           0        0.000000    1.410093    1.596138
      4          1           0        0.000000   -1.410093    1.596138
      5          6           0        0.000000    0.780991   -0.696960
      6          6           0        0.000000   -0.780991   -0.696960
      7          1           0       -0.887743    1.238379   -1.137986
      8          1           0        0.887743   -1.238379   -1.137986
      9          1           0        0.887743    1.238379   -1.137986
     10          1           0       -0.887743   -1.238379   -1.137986
 ---------------------------------------------------------------------

 SCF Done:  E(RwB97XD) =  -155.977462206     A.U. after    1 cycles

 The electronic state is 1-A1.
 Alpha  occ. eigenvalues --  -10.28314 -10.28298 -10.28101 -10.28009  -0.96002
 Alpha  occ. eigenvalues --   -0.75367  -0.73939  -0.60422  -0.58906  -0.54851
 Alpha  occ. eigenvalues --   -0.46710  -0.44289  -0.41002  -0.39826  -0.33155
 Alpha virt. eigenvalues --    0.08645   0.12971   0.15072   0.15994   0.16506
 Alpha virt. eigenvalues --    0.18458   0.20104   0.22827   0.23961   0.27455
 Alpha virt. eigenvalues --    0.28121   0.31385   0.31862   0.32100   0.33716

 Mulliken charges:
               1
     1  C   -0.170993
     2  C   -0.170993
     3  H    0.114396
     4  H    0.114396
     5  C   -0.130489
     6  C   -0.130489
     7  H    0.093543
     8  H    0.093543
     9  H    0.093543
    10  H    0.093543
 Sum of Mulliken charges =   0.00000

 Dipole moment (field-independent basis, Debye):
    X=              0.0000    Y=              0.0000    Z=             -0.1452  Tot=              0.1452
 Quadrupole moment (field-independent basis, Debye-Ang):
   XX=            -25.9461   YY=            -24.0202   ZZ=            -24.5869
   XY=              0.0000   XZ=              0.0000   YZ=              0.0000

  Exact polarizability:  34.941   0.000  51.577   0.000   0.000  46.189
 Approx polarizability:  39.652   0.000  57.467   0.000   0.000  46.932

                      1                      2                      3
                     A2                     B1                     B2
 Frequencies --    323.1251               656.0557               868.8086
 Red. masses --      1.6092                 1.0675                 5.2937
 Frc consts  --      0.0990                 0.2707                 2.3543
 IR Inten    --      0.0000                50.3576                 0.6102

                      4                      5                      6
                     B1                     B2                     A1
 Frequencies --    879.1083               911.4511               911.7692
 Red. masses --      1.1349                 1.8396                 2.4979
 Frc consts  --      0.5167                 0.9004                 1.2235
 IR Inten    --     18.5723                16.7113                 1.3737

                      7                      8                      9
                     A2                     A1                     A2
 Frequencies --    956.0582              1010.9685              1050.2947
 Red. masses --      1.1844                 1.5440                 1.9525
 Frc consts  --      0.6378                 0.9298                 1.2690
 IR Inten    --      0.0000                 0.0081                 0.0000

                     10                     11                     12
                     B1                     A1                     A2
 Frequencies --   1110.2690              1147.7297              1181.4925
 Red. masses --      1.1858                 1.9597                 1.1656
 Frc consts  --      0.8612                 1.5210                 0.9587
 IR Inten    --      7.0883                 0.1497                 0.0000

                     13                     14                     15
                     A1                     B2                     B2
 Frequencies --   1233.0917              1249.4582              1336.7185
 Red. masses --      1.5353                 1.3863                 1.9104
 Frc consts  --      1.3754                 1.2752                 2.0112
 IR Inten    --      2.9413                 3.3199                13.9050

                     16                     17                     18
                     B2                     A1                     A1
 Frequencies --   1473.0908              1496.6490              1666.0035
 Red. masses --      1.0823                 1.1416                 5.4637
 Frc consts  --      1.3838                 1.5066                 8.9349
 IR Inten    --      1.0913                 0.6775                 1.2848

                     19                     20                     21
                     B2                     A1                     A2
 Frequencies --   3064.2657              3070.0722              3107.4526
 Red. masses --      1.0560                 1.0596                 1.1086
 Frc consts  --      5.8421                 5.8844                 6.3072
 IR Inten    --     42.5892                44.2654                 0.0000

                     22                     23                     24
                     B1                     B2                     A1
 Frequencies --   3121.7390              3197.9178              3229.4655
 Red. masses --      1.1065                 1.0846                 1.1146
 Frc consts  --      6.3531                 6.5353                 6.8493
 IR Inten    --     42.3138                12.9877                18.1202

 - Thermochemistry -
 -------------------
 Temperature   298.150 Kelvin.  Pressure   1.00000 Atm.
 Atom     1 has atomic number  6 and mass  12.00000

 Molecular mass:    54.04695 amu.
 Principal axes and moments of inertia in atomic units:
                           1         2         3
     Eigenvalues --   137.98065 146.10614 261.39612
           X            0.00000   0.00000   1.00000
           Y            0.00000   1.00000   0.00000
           Z            1.00000   0.00000   0.00000
 This molecule is an asymmetric top.
 Rotational symmetry number  2.
 Rotational temperatures (Kelvin)      0.62772     0.59281     0.33135
 Rotational constants (GHZ):          13.07967    12.35226     6.90424
 Zero-point vibrational energy     228804.1 (Joules/Mol)
                                   54.68549 (Kcal/Mol)
 Warning -- explicit consideration of   1 degrees of freedom as
           vibrations may cause significant error
 Vibrational temperatures:    464.90   943.92  1250.02  1264.84  1311.37
          (Kelvin)           1311.83  1375.55  1454.56  1511.14  1597.43
                             1651.33  1699.90  1774.14  1797.69  1923.24
                             2119.45  2153.34  2397.00  4408.79  4417.14
                             4470.93  4491.48  4601.08  4646.47

 Zero-point correction=                           0.087147 (Hartree/Particle)
 Thermal correction to Energy=                    0.090948
 Thermal correction to Enthalpy=                  0.091893
 Thermal correction to Gibbs Free Energy=         0.062207
 Sum of electronic and zero-point Energies=           -155.890315
 Sum of electronic and thermal Energies=              -155.886514
 Sum of electronic and thermal Enthalpies=            -155.885570
 Sum of electronic and thermal Free Energies=         -155.915255

                     E (Thermal)             CV                S
                      KCal/Mol        Cal/Mol-Kelvin    Cal/Mol-Kelvin
 Total                   57.071             13.087             62.478
 Electronic               0.000              0.000              0.000
 Translational            0.889              2.981             37.884
 Rotational               0.889              2.981             21.804
 Vibrational             55.294              7.126              2.791
 Vibration     1          0.708              1.629              1.294

 Optimization completed.
    -- Stationary point found.

 1\1\GINC-CN514-06-R\Freq\RwB97XD\def2TZVP\C4H6\MINENKY\09-Jul-2021\0\\
 #P Geom=AllCheck Guess=TCheck SCRF=Check GenChk RwB97XD/def2TZVP Freq\
 \The PBEPBE optimization and frequencies\\0,1\C,0.,0.665601385,0.80967
 69505\C,0.,-0.665601385,0.8096769505\H,0.,1.4100934008,1.5955502089\H,
 0.,-1.4100934008,1.5955502089\C,0.,0.7809907295,-0.6975477267\C,0.,-0.
 7809907295,-0.6975477267\H,-0.8877428855,1.2383791255,-1.1385742179\H,
 0.8877428855,-1.2383791255,-1.1385742179\H,0.8877428855,1.2383791255,-
 1.1385742179\H,-0.8877428855,-1.2383791255,-1.1385742179\\Version=AM64

 Normal termination of Gaussian 09 at Fri Jul  9 19:24:27 2021.
