 Gaussian 09, Revision D.01,
 Gaussian 09:  AM64L-G09RevD.01 24-Apr-2013

 ----------------------------------------------------------------------
 #P wB97XD/def2tzvp opt=(tight) freq integral(Grid=ultrafine) # SCF(Max
 Cycle=380) 5d 7f GFPrint
 ----------------------------------------------------------------------

 ---------------------------------------
 The PBEPBE optimization and frequencies
 ---------------------------------------
 Symbolic Z-matrix:
 Charge =  0 Multiplicity = 1

 SCF Done:  E(RwB97XD) =  -1230.30222885     A.U. after   15 cycles
 SCF Done:  E(RwB97XD) =  -1230.30605544     A.U. after   12 cycles
 SCF Done:  E(RwB97XD) =  -1230.30609126     A.U. after   12 cycles
 SCF Done:  E(RwB97XD) =  -1230.30615704     A.U. after   11 cycles
 SCF Done:  E(RwB97XD) =  -1230.30617309     A.U. after    9 cycles
 SCF Done:  E(RwB97XD) =  -1230.30617327     A.U. after    8 cycles
 SCF Done:  E(RwB97XD) =  -1230.30617343     A.U. after    7 cycles
 SCF Done:  E(RwB97XD) =  -1230.30617350     A.U. after    6 cycles
 SCF Done:  E(RwB97XD) =  -1230.30617350     A.U. after    5 cycles
 SCF Done:  E(RwB97XD) =  -1230.30617350     A.U. after    3 cycles
 SCF Done:  E(RwB97XD) =  -1230.30617350     A.U. after    3 cycles
 SCF Done:  E(RwB97XD) =  -1230.30617350     A.U. after    3 cycles
 Optimization completed.
    -- Stationary point found.
 Normal termination of Gaussian 09 at Sat Jul 27 22:42:29 2019.

 ---------------------------------------------------------------------
 #P Geom=AllCheck Guess=TCheck SCRF=Check GenChk RwB97XD/def2TZVP Freq
 ---------------------------------------------------------------------

 Structure from the checkpoint file:  "m1_00_31541-02-3-C32H18_wB97XD.chk"
 ---------------------------------------
 The PBEPBE optimization and frequencies
 ---------------------------------------
 Charge =  0 Multiplicity = 1

                         Standard orientation:
 ---------------------------------------------------------------------
 Center     Atomic      Atomic             Coordinates (Angstroms)
 Number     Number       Type             X           Y           Z
 ---------------------------------------------------------------------
      1          6           0        1.377746   -3.159879    1.105180
      2          6           0        0.696503   -4.226955    1.637287
      3          6           0        0.704921   -2.073274    0.518989
      4          6           0       -0.696502   -4.226956    1.637284
      5          6           0       -1.377745   -3.159882    1.105174
      6          6           0       -0.704919   -2.073275    0.518986
      7          6           0       -1.415964   -0.882532    0.080964
      8          6           0        1.415965   -0.882530    0.080966
      9          6           0       -0.722516    0.325770    0.136034
     10          6           0       -2.782887   -0.889528   -0.350210
     11          6           0        0.722516    0.325771    0.136034
     12          6           0       -1.430149    1.567152    0.063415
     13          6           0        1.430147    1.567154    0.063413
     14          6           0        2.782889   -0.889526   -0.350207
     15          6           0       -3.462919    0.346540   -0.456847
     16          6           0       -3.466716   -2.052445   -0.783871
     17          6           0       -2.771273    1.546770   -0.194628
     18          6           0       -4.816581    0.370504   -0.865752
     19          6           0       -0.700176    2.823000    0.290456
     20          6           0       -4.765466   -1.998052   -1.206238
     21          6           0       -5.463344   -0.777028   -1.219706
     22          6           0        0.700173    2.823001    0.290454
     23          6           0       -1.375657    4.024025    0.534225
     24          6           0        1.375653    4.024027    0.534221
     25          6           0        2.771271    1.546773   -0.194634
     26          6           0        3.462918    0.346543   -0.456850
     27          6           0        4.816579    0.370508   -0.865758
     28          6           0        3.466720   -2.052443   -0.783863
     29          6           0        5.463345   -0.777025   -1.219706
     30          6           0        4.765469   -1.998050   -1.206231
     31          6           0       -0.695033    5.199762    0.757880
     32          6           0        0.695028    5.199763    0.757878
     33          1           0        2.452522   -3.127094    1.202230
     34          1           0        1.243151   -5.039125    2.099218
     35          1           0       -1.243151   -5.039128    2.099212
     36          1           0       -2.452521   -3.127099    1.202219
     37          1           0       -2.939850   -2.993679   -0.832283
     38          1           0       -3.332041    2.468534   -0.269549
     39          1           0       -5.325327    1.326113   -0.914857
     40          1           0       -5.254649   -2.900356   -1.550666
     41          1           0       -6.496577   -0.747118   -1.541077
     42          1           0       -2.455736    4.036254    0.573795
     43          1           0        2.455733    4.036258    0.573788
     44          1           0        3.332037    2.468537   -0.269559
     45          1           0        5.325324    1.326118   -0.914869
     46          1           0        2.939856   -2.993679   -0.832270
     47          1           0        6.496577   -0.747114   -1.541079
     48          1           0        5.254655   -2.900355   -1.550654
     49          1           0       -1.242682    6.113410    0.950194
     50          1           0        1.242676    6.113412    0.950190
 ---------------------------------------------------------------------

 SCF Done:  E(RwB97XD) =  -1230.30617350     A.U. after    1 cycles

 The electronic state is 1-A.
 Alpha  occ. eigenvalues --  -10.30692 -10.30691 -10.30558 -10.30526 -10.30480
 Alpha  occ. eigenvalues --  -10.30474 -10.30461 -10.30436 -10.30411 -10.30385
 Alpha  occ. eigenvalues --  -10.30383 -10.30382 -10.30007 -10.30006 -10.29112
 Alpha  occ. eigenvalues --  -10.29105 -10.29088 -10.29087 -10.29040 -10.29008
 Alpha  occ. eigenvalues --  -10.29008 -10.29002 -10.29002 -10.28991 -10.28977
 Alpha  occ. eigenvalues --  -10.28977 -10.28919 -10.28919 -10.28918 -10.28902
 Alpha  occ. eigenvalues --  -10.28852 -10.28813  -1.01338  -0.98579  -0.98031
 Alpha  occ. eigenvalues --   -0.96713  -0.94585  -0.92943  -0.90654  -0.89803
 Alpha  occ. eigenvalues --   -0.88106  -0.86504  -0.85703  -0.84750  -0.84701
 Alpha  occ. eigenvalues --   -0.82888  -0.81449  -0.80887  -0.75454  -0.73721
 Alpha  occ. eigenvalues --   -0.73601  -0.72799  -0.70564  -0.70343  -0.69696
 Alpha  occ. eigenvalues --   -0.68146  -0.67525  -0.65689  -0.63197  -0.62203
 Alpha  occ. eigenvalues --   -0.61316  -0.60511  -0.60007  -0.58791  -0.57430
 Alpha  occ. eigenvalues --   -0.55974  -0.55319  -0.55065  -0.54553  -0.53322
 Alpha  occ. eigenvalues --   -0.52949  -0.52726  -0.52318  -0.52148  -0.51963
 Alpha  occ. eigenvalues --   -0.50843  -0.50642  -0.50323  -0.50244  -0.48944
 Alpha  occ. eigenvalues --   -0.48476  -0.47792  -0.47286  -0.46947  -0.46168
 Alpha  occ. eigenvalues --   -0.45135  -0.44767  -0.44286  -0.44127  -0.43176
 Alpha  occ. eigenvalues --   -0.42949  -0.41961  -0.41898  -0.39917  -0.39872
 Alpha  occ. eigenvalues --   -0.39145  -0.38241  -0.35915  -0.34761  -0.33719
 Alpha  occ. eigenvalues --   -0.33582  -0.32493  -0.30157  -0.27395  -0.26615
 Alpha virt. eigenvalues --   -0.01043  -0.00573   0.01917   0.04445   0.04843
 Alpha virt. eigenvalues --    0.05578   0.06443   0.08572   0.10421   0.11464
 Alpha virt. eigenvalues --    0.12221   0.12489   0.12717   0.13592   0.13658

 Mulliken charges:
               1
     1  C   -0.316455
     2  C   -0.105580
     3  C    0.070146
     4  C   -0.105581
     5  C   -0.316453
     6  C    0.070146
     7  C    0.233229
     8  C    0.233230
     9  C   -0.138806
    10  C    0.061207
    11  C   -0.138805
    12  C    0.194707
    13  C    0.194706
    14  C    0.061207
    15  C    0.169206
    16  C   -0.336897
    17  C   -0.320783
    18  C   -0.213862
    19  C    0.039094
    20  C   -0.094640
    21  C   -0.106195
    22  C    0.039095
    23  C   -0.164888
    24  C   -0.164888
    25  C   -0.320782
    26  C    0.169206
    27  C   -0.213862
    28  C   -0.336897
    29  C   -0.106195
    30  C   -0.094640
    31  C   -0.111281
    32  C   -0.111281
    33  H    0.182753
    34  H    0.116979
    35  H    0.116979
    36  H    0.182753
    37  H    0.181975
    38  H    0.096933
    39  H    0.108957
    40  H    0.118145
    41  H    0.116939
    42  H    0.103609
    43  H    0.103609
    44  H    0.096933
    45  H    0.108957
    46  H    0.181976
    47  H    0.116939
    48  H    0.118145
    49  H    0.115507
    50  H    0.115507
 Sum of Mulliken charges =   0.00000

 Dipole moment (field-independent basis, Debye):
    X=              0.0000    Y=              0.1022    Z=             -0.0399  Tot=              0.1097
 Quadrupole moment (field-independent basis, Debye-Ang):
   XX=           -159.3572   YY=           -159.4749   ZZ=           -188.9803
   XY=              0.0000   XZ=              0.0000   YZ=              0.2223

  Exact polarizability: 540.717   0.000 472.363   0.000   2.247 199.528
 Approx polarizability: 580.528   0.000 530.357   0.000   3.322 262.483

                      1                      2                      3
                      A                      A                      A
 Frequencies --     36.0618                61.4061                63.5255
 Red. masses --      5.4549                 4.2019                 5.5691
 Frc consts  --      0.0042                 0.0093                 0.0132
 IR Inten    --      0.0019                 0.0021                 1.2878

                      4                      5                      6
                      A                      A                      A
 Frequencies --     87.8386               103.5390               121.1121
 Red. masses --      3.9317                 4.4061                 4.5543
 Frc consts  --      0.0179                 0.0278                 0.0394
 IR Inten    --      0.1887                 0.1824                 0.1260

                      7                      8                      9
                      A                      A                      A
 Frequencies --    136.5322               137.5858               188.3275
 Red. masses --      5.0643                 4.5554                 5.6681
 Frc consts  --      0.0556                 0.0508                 0.1184
 IR Inten    --      0.7157                 0.1500                 0.0915

                     10                     11                     12
                      A                      A                      A
 Frequencies --    191.2889               227.7672               242.1089
 Red. masses --      4.9723                 4.8085                 4.6144
 Frc consts  --      0.1072                 0.1470                 0.1594
 IR Inten    --      0.0563                 0.1115                 0.0175

                     13                     14                     15
                      A                      A                      A
 Frequencies --    275.0118               288.8430               314.2305
 Red. masses --      4.6049                 5.5199                 4.4784
 Frc consts  --      0.2052                 0.2713                 0.2605
 IR Inten    --      2.0953                 0.8906                 0.6326

                     16                     17                     18
                      A                      A                      A
 Frequencies --    315.9467               325.7225               340.1482
 Red. masses --      5.1489                 6.5770                 6.3171
 Frc consts  --      0.3028                 0.4111                 0.4306
 IR Inten    --      0.1172                 0.1322                 0.3722

                     19                     20                     21
                      A                      A                      A
 Frequencies --    373.9376               375.0727               390.9276
 Red. masses --      6.2987                 5.0468                 5.1128
 Frc consts  --      0.5189                 0.4183                 0.4604
 IR Inten    --      0.1338                 2.1423                 0.2036

                     22                     23                     24
                      A                      A                      A
 Frequencies --    438.5419               452.0034               464.9843
 Red. masses --      3.5776                 5.3176                 4.1281
 Frc consts  --      0.4054                 0.6401                 0.5259
 IR Inten    --      0.7921                 0.1666                 0.4733

                     25                     26                     27
                      A                      A                      A
 Frequencies --    473.8977               498.4958               513.8375
 Red. masses --      3.6488                 3.5884                 3.5133
 Frc consts  --      0.4828                 0.5254                 0.5465
 IR Inten    --      6.0736                 4.3133                 0.4444

                     28                     29                     30
                      A                      A                      A
 Frequencies --    531.7456               552.7321               565.8436
 Red. masses --      6.5576                 3.3595                 3.7284
 Frc consts  --      1.0925                 0.6047                 0.7033
 IR Inten    --      1.7074                14.3412                 0.1348

                     31                     32                     33
                      A                      A                      A
 Frequencies --    570.9657               573.8310               583.8184
 Red. masses --      4.0086                 5.5472                 6.9589
 Frc consts  --      0.7699                 1.0762                 1.3975
 IR Inten    --      0.0324                 0.2270                 5.1674

                     34                     35                     36
                      A                      A                      A
 Frequencies --    604.4811               633.0591               633.4884
 Red. masses --      7.1126                 5.0377                 4.4641
 Frc consts  --      1.5313                 1.1895                 1.0555
 IR Inten    --      5.0837                 6.7057                11.6539

                     37                     38                     39
                      A                      A                      A
 Frequencies --    641.8441               649.2052               661.5554
 Red. masses --      4.5107                 5.7578                 6.5734
 Frc consts  --      1.0949                 1.4298                 1.6950
 IR Inten    --      0.9689                 2.7696                 3.8418

                     40                     41                     42
                      A                      A                      A
 Frequencies --    683.3422               693.7075               708.9090
 Red. masses --      6.3298                 5.4023                 6.4600
 Frc consts  --      1.7415                 1.5317                 1.9128
 IR Inten    --      0.9803                 0.0114                 0.0596

                     43                     44                     45
                      A                      A                      A
 Frequencies --    717.9376               751.5574               776.7371
 Red. masses --      3.1265                 3.8844                 1.6111
 Frc consts  --      0.9495                 1.2927                 0.5727
 IR Inten    --     45.6098                 3.4621                 0.6780

                     46                     47                     48
                      A                      A                      A
 Frequencies --    777.5504               778.9455               787.6049
 Red. masses --      1.3834                 1.5456                 3.2092
 Frc consts  --      0.4928                 0.5525                 1.1729
 IR Inten    --     39.8387                24.4647                 2.0714

                     49                     50                     51
                      A                      A                      A
 Frequencies --    789.6446               805.6466               805.9756
 Red. masses --      1.5754                 3.5212                 3.0831
 Frc consts  --      0.5788                 1.3466                 1.1800
 IR Inten    --     57.1224                 1.2776                 0.2184

                     52                     53                     54
                      A                      A                      A
 Frequencies --    829.0292               833.7367               862.8326
 Red. masses --      5.4713                 2.6582                 2.2421
 Frc consts  --      2.2156                 1.0886                 0.9835
 IR Inten    --      0.1481                36.9229                13.0933

                     55                     56                     57
                      A                      A                      A
 Frequencies --    871.6037               887.6779               890.5948
 Red. masses --      5.5862                 1.4649                 1.9118
 Frc consts  --      2.5004                 0.6801                 0.8934
 IR Inten    --      0.1351                11.0785                 4.1059

                     58                     59                     60
                      A                      A                      A
 Frequencies --    894.7317               902.2670               905.8009
 Red. masses --      2.6581                 2.5451                 3.9666
 Frc consts  --      1.2537                 1.2207                 1.9175
 IR Inten    --      0.4664                 2.6153                 1.2832

                     61                     62                     63
                      A                      A                      A
 Frequencies --    920.4994               928.6625               933.5682
 Red. masses --      1.6159                 1.8283                 2.0941
 Frc consts  --      0.8067                 0.9290                 1.0753
 IR Inten    --      0.0001                18.4458                 0.8123

                     64                     65                     66
                      A                      A                      A
 Frequencies --    942.1618               981.4227               989.6629
 Red. masses --      6.6600                 1.3982                 1.3730
 Frc consts  --      3.4832                 0.7935                 0.7923
 IR Inten    --      4.6861                 0.3664                 3.5343

                     67                     68                     69
                      A                      A                      A
 Frequencies --    991.5997               998.5436               998.8802
 Red. masses --      1.3485                 3.1828                 1.3334
 Frc consts  --      0.7812                 1.8698                 0.7838
 IR Inten    --      0.0000                 1.6409                 0.0917

                     70                     71                     72
                      A                      A                      A
 Frequencies --    998.8826              1004.1806              1020.9246
 Red. masses --      1.5516                 1.3443                 1.7568
 Frc consts  --      0.9121                 0.7987                 1.0789
 IR Inten    --      0.4156                 0.0507                 0.0038

                     73                     74                     75
                      A                      A                      A
 Frequencies --   1026.0058              1028.1480              1064.6863
 Red. masses --      1.2660                 2.4792                 2.5418
 Frc consts  --      0.7852                 1.5441                 1.6976
 IR Inten    --      0.5324                 1.5641                 7.0761

                     76                     77                     78
                      A                      A                      A
 Frequencies --   1067.4019              1087.4740              1092.7056
 Red. masses --      2.1995                 2.0953                 2.0450
 Frc consts  --      1.4765                 1.4599                 1.4386
 IR Inten    --      3.4501                11.4183                 3.2507

                     79                     80                     81
                      A                      A                      A
 Frequencies --   1111.0122              1143.0917              1158.7649
 Red. masses --      3.3180                 3.0782                 1.8882
 Frc consts  --      2.4131                 2.3698                 1.4938
 IR Inten    --      4.6420                 0.1966                 0.1957

                     82                     83                     84
                      A                      A                      A
 Frequencies --   1165.9985              1170.2614              1177.4721
 Red. masses --      1.8140                 1.8322                 1.4641
 Frc consts  --      1.4531                 1.4784                 1.1959
 IR Inten    --      1.3970                 0.1643                 3.6807

                     85                     86                     87
                      A                      A                      A
 Frequencies --   1197.9659              1198.9391              1201.0069
 Red. masses --      1.2146                 1.2277                 1.2150
 Frc consts  --      1.0270                 1.0398                 1.0326
 IR Inten    --      1.3154                 0.5503                 0.9542

                     88                     89                     90
                      A                      A                      A
 Frequencies --   1215.2233              1231.6024              1231.8021
 Red. masses --      1.9093                 1.8379                 1.4661
 Frc consts  --      1.6613                 1.6425                 1.3107
 IR Inten    --      1.3149                 0.2240                 0.1448

                     91                     92                     93
                      A                      A                      A
 Frequencies --   1242.6841              1266.3371              1278.8040
 Red. masses --      1.5029                 2.0336                 2.0580
 Frc consts  --      1.3674                 1.9214                 1.9829
 IR Inten    --      0.3277                 6.3972                 0.0337

                     94                     95                     96
                      A                      A                      A
 Frequencies --   1286.3300              1301.2906              1322.4965
 Red. masses --      1.5811                 2.3026                 1.7038
 Frc consts  --      1.5414                 2.2973                 1.7557
 IR Inten    --      3.8999                 4.1037                 0.4791

                     97                     98                     99
                      A                      A                      A
 Frequencies --   1323.8724              1346.4708              1360.0867
 Red. masses --      4.6807                 4.0203                 3.5842
 Frc consts  --      4.8334                 4.2944                 3.9064
 IR Inten    --      4.8565                 0.6893                 3.7044

                    100                    101                    102
                      A                      A                      A
 Frequencies --   1364.4722              1390.7729              1392.7396
 Red. masses --      2.0052                 5.4158                 3.5418
 Frc consts  --      2.1996                 6.1720                 4.0477
 IR Inten    --      1.5049                 4.0983                 0.0337

                    103                    104                    105
                      A                      A                      A
 Frequencies --   1409.5841              1416.5942              1418.3739
 Red. masses --      5.0247                 2.8610                 5.1721
 Frc consts  --      5.8822                 3.3827                 6.1305
 IR Inten    --      1.3292                 7.4562                 1.1395

                    106                    107                    108
                      A                      A                      A
 Frequencies --   1434.8469              1462.1514              1464.8412
 Red. masses --      4.6473                 3.0235                 2.6134
 Frc consts  --      5.6371                 3.8084                 3.3040
 IR Inten    --     15.7990                12.4977                 1.7729

                    109                    110                    111
                      A                      A                      A
 Frequencies --   1481.0158              1497.8999              1503.4953
 Red. masses --      2.5172                 2.6776                 3.0442
 Frc consts  --      3.2531                 3.5397                 4.0544
 IR Inten    --      2.0542                 2.6722                 0.7708

                    112                    113                    114
                      A                      A                      A
 Frequencies --   1527.7623              1528.2789              1538.3215
 Red. masses --      3.2564                 3.0744                 2.6594
 Frc consts  --      4.4782                 4.2308                 3.7079
 IR Inten    --      3.6851                 9.1029                 3.5483

                    115                    116                    117
                      A                      A                      A
 Frequencies --   1557.4461              1566.5153              1599.1216
 Red. masses --      3.4213                 4.0043                 5.1092
 Frc consts  --      4.8895                 5.7895                 7.6978
 IR Inten    --     29.7557                 7.1344                 4.0001

                    118                    119                    120
                      A                      A                      A
 Frequencies --   1643.2226              1645.8518              1646.4376
 Red. masses --      5.9730                 8.3564                 7.2764
 Frc consts  --      9.5025                13.3368                11.6214
 IR Inten    --      2.0416                 0.3951                 2.9000

                    121                    122                    123
                      A                      A                      A
 Frequencies --   1673.6125              1676.1062              1681.1879
 Red. masses --      5.9647                 7.5553                 5.8426
 Frc consts  --      9.8436                12.5056                 9.7295
 IR Inten    --      0.3214                 1.7884                 0.1196

                    124                    125                    126
                      A                      A                      A
 Frequencies --   1683.6536              1694.5102              1702.6067
 Red. masses --      6.0465                 6.0081                 6.8258
 Frc consts  --     10.0985                10.1642                11.6583
 IR Inten    --      0.3294                 0.1090                 3.4409

                    127                    128                    129
                      A                      A                      A
 Frequencies --   3189.7115              3189.7525              3198.4953
 Red. masses --      1.0870                 1.0870                 1.0868
 Frc consts  --      6.5159                 6.5162                 6.5506
 IR Inten    --      1.2248                 2.7902                 1.2550

                    130                    131                    132
                      A                      A                      A
 Frequencies --   3198.5828              3202.1583              3202.1982
 Red. masses --      1.0862                 1.0901                 1.0901
 Frc consts  --      6.5472                 6.5854                 6.5858
 IR Inten    --      0.2238                12.4053                 1.1334

                    133                    134                    135
                      A                      A                      A
 Frequencies --   3209.7726              3213.9921              3214.5482
 Red. masses --      1.0902                 1.0927                 1.0915
 Frc consts  --      6.6176                 6.6502                 6.6456
 IR Inten    --     17.6998                19.0455                 1.9960

                    136                    137                    138
                      A                      A                      A
 Frequencies --   3217.8214              3217.8642              3218.5964
 Red. masses --      1.0949                 1.0959                 1.0929
 Frc consts  --      6.6798                 6.6860                 6.6706
 IR Inten    --      1.4250                44.0525                 1.3252

                    139                    140                    141
                      A                      A                      A
 Frequencies --   3229.1819              3232.9407              3233.2329
 Red. masses --      1.0904                 1.0942                 1.0938
 Frc consts  --      6.6993                 6.7385                 6.7366
 IR Inten    --     14.9354                19.3671                 0.4140

                    142                    143                    144
                      A                      A                      A
 Frequencies --   3234.8351              3244.0638              3245.3224
 Red. masses --      1.0951                 1.0919                 1.0927
 Frc consts  --      6.7516                 6.7704                 6.7808
 IR Inten    --      3.5375                 6.9158                 9.2450

 - Thermochemistry -
 -------------------
 Temperature   298.150 Kelvin.  Pressure   1.00000 Atm.
 Atom     1 has atomic number  6 and mass  12.00000

 Molecular mass:   402.14085 amu.
 Principal axes and moments of inertia in atomic units:
                           1         2         3
     Eigenvalues --  ******************************
           X            1.00000   0.00000   0.00000
           Y            0.00000   1.00000   0.00004
           Z            0.00000  -0.00004   1.00000
 This molecule is an asymmetric top.
 Rotational symmetry number  1.
 Warning -- assumption of classical behavior for rotation
           may cause significant error
 Rotational temperatures (Kelvin)      0.00846     0.00685     0.00412
 Rotational constants (GHZ):           0.17619     0.14263     0.08586
 Zero-point vibrational energy    1047321.7 (Joules/Mol)
                                  250.31589 (Kcal/Mol)
 Warning -- explicit consideration of  34 degrees of freedom as
           vibrations may cause significant error
 Vibrational temperatures:     51.88    88.35    91.40   126.38   148.97
          (Kelvin)            174.25   196.44   197.96   270.96   275.22
                              327.71   348.34   395.68   415.58   452.11
                              454.58   468.64   489.40   538.01   539.65
                              562.46   630.96   650.33   669.01   681.83
                              717.22   739.30   765.06   795.26   814.12
                              821.49   825.61   839.98   869.71   910.83
                              911.45   923.47   934.06   951.83   983.18
                              998.09  1019.96  1032.95  1081.32  1117.55
                             1118.72  1120.73  1133.19  1136.12  1159.14
                             1159.62  1192.79  1199.56  1241.42  1254.04
                             1277.17  1281.37  1287.32  1298.16  1303.24
                             1324.39  1336.14  1343.19  1355.56  1412.05
                             1423.90  1426.69  1436.68  1437.16  1437.17
                             1444.79  1468.88  1476.19  1479.27  1531.84
                             1535.75  1564.63  1572.16  1598.50  1644.65
                             1667.20  1677.61  1683.74  1694.12  1723.60
                             1725.00  1727.98  1748.43  1772.00  1772.29
                             1787.94  1821.97  1839.91  1850.74  1872.26
                             1902.78  1904.75  1937.27  1956.86  1963.17
                             2001.01  2003.84  2028.07  2038.16  2040.72
                             2064.42  2103.71  2107.58  2130.85  2155.14
                             2163.19  2198.11  2198.85  2213.30  2240.81
                             2253.86  2300.78  2364.23  2368.01  2368.85
                             2407.95  2411.54  2418.85  2422.40  2438.02
                             2449.67  4589.28  4589.34  4601.92  4602.04
                             4607.19  4607.24  4618.14  4624.21  4625.01
                             4629.72  4629.78  4630.84  4646.07  4651.47
                             4651.90  4654.20  4667.48  4669.29

 Zero-point correction=                           0.398904 (Hartree/Particle)
 Thermal correction to Energy=                    0.419503
 Thermal correction to Enthalpy=                  0.420447
 Thermal correction to Gibbs Free Energy=         0.350760
 Sum of electronic and zero-point Energies=          -1229.907270
 Sum of electronic and thermal Energies=             -1229.886671
 Sum of electronic and thermal Enthalpies=           -1229.885726
 Sum of electronic and thermal Free Energies=        -1229.955413

                     E (Thermal)             CV                S
                      KCal/Mol        Cal/Mol-Kelvin    Cal/Mol-Kelvin
 Total                  263.242             89.666            146.668
 Electronic               0.000              0.000              0.000
 Translational            0.889              2.981             43.866
 Rotational               0.889              2.981             36.253
 Vibrational            261.465             83.704             66.549
 Vibration     1          0.594              1.982              5.464
 Vibration     2          0.597              1.973              4.411
 Vibration     3          0.597              1.972              4.345
 Vibration     4          0.601              1.958              3.708
 Vibration     5          0.605              1.946              3.387
 Vibration     6          0.609              1.932              3.083
 Vibration     7          0.614              1.917              2.852
 Vibration     8          0.614              1.916              2.837
 Vibration     9          0.633              1.856              2.244
 Vibration    10          0.634              1.852              2.215
 Vibration    11          0.651              1.799              1.896
 Vibration    12          0.658              1.776              1.787
 Vibration    13          0.677              1.720              1.565
 Vibration    14          0.685              1.694              1.481
 Vibration    15          0.702              1.647              1.340
 Vibration    16          0.703              1.643              1.331
 Vibration    17          0.710              1.624              1.281
 Vibration    18          0.720              1.595              1.211
 Vibration    19          0.745              1.526              1.064
 Vibration    20          0.746              1.523              1.059
 Vibration    21          0.759              1.490              0.997
 Vibration    22          0.799              1.386              0.831
 Vibration    23          0.811              1.356              0.790
 Vibration    24          0.822              1.328              0.752
 Vibration    25          0.831              1.308              0.727
 Vibration    26          0.854              1.253              0.662
 Vibration    27          0.869              1.219              0.624
 Vibration    28          0.887              1.180              0.583
 Vibration    29          0.908              1.134              0.539
 Vibration    30          0.922              1.105              0.512
 Vibration    31          0.927              1.094              0.502
 Vibration    32          0.930              1.088              0.497
 Vibration    33          0.941              1.066              0.478
 Vibration    34          0.963              1.022              0.442

 Normal termination of Gaussian 09 at Sun Jul 28 10:22:21 2019.
