 Gaussian 09, Revision D.01,
 Gaussian 09:  AM64L-G09RevD.01 24-Apr-2013

 ----------------------------------------------------------------------
 #P wB97XD/def2tzvp opt=(tight) freq integral(Grid=ultrafine) # SCF(Max
 Cycle=380) 5d 7f GFPrint
 ----------------------------------------------------------------------

 ---------------------------------------
 The PBEPBE optimization and frequencies
 ---------------------------------------
 Symbolic Z-matrix:
 Charge =  0 Multiplicity = 1

 SCF Done:  E(RwB97XD) =  -1229.14294612     A.U. after   15 cycles
 SCF Done:  E(RwB97XD) =  -1229.14882159     A.U. after   13 cycles
 SCF Done:  E(RwB97XD) =  -1229.14928033     A.U. after   11 cycles
 SCF Done:  E(RwB97XD) =  -1229.14926901     A.U. after    9 cycles
 SCF Done:  E(RwB97XD) =  -1229.14926994     A.U. after    8 cycles
 SCF Done:  E(RwB97XD) =  -1229.14927000     A.U. after    7 cycles
 SCF Done:  E(RwB97XD) =  -1229.14927000     A.U. after    4 cycles
 Optimization completed.
    -- Stationary point found.
 Normal termination of Gaussian 09 at Sat Jul 27 17:00:24 2019.

 ---------------------------------------------------------------------
 #P Geom=AllCheck Guess=TCheck SCRF=Check GenChk RwB97XD/def2TZVP Freq
 ---------------------------------------------------------------------

 Structure from the checkpoint file:  "m1_00_120835-94-1-C32H16_wB97XD.chk"
 ---------------------------------------
 The PBEPBE optimization and frequencies
 ---------------------------------------
 Charge =  0 Multiplicity = 1

                         Standard orientation:
 ---------------------------------------------------------------------
 Center     Atomic      Atomic             Coordinates (Angstroms)
 Number     Number       Type             X           Y           Z
 ---------------------------------------------------------------------
      1          6           0       -3.250301   -1.601922    0.000000
      2          6           0       -3.484769   -0.261382    0.000000
      3          6           0        1.318538    0.650300    0.000000
      4          6           0        2.124202    2.932867    0.000000
      5          6           0        2.364411    1.586105    0.000000
      6          6           0        0.815812    3.427804    0.000000
      7          6           0       -0.712300    5.299522    0.000000
      8          6           0        0.550890    4.833218    0.000000
      9          6           0       -1.828891    4.403202    0.000000
     10          6           0       -3.977745    2.636759    0.000000
     11          6           0       -4.199748    4.006398    0.000000
     12          6           0       -3.139173    4.884462    0.000000
     13          6           0        0.000000    1.119922    0.000000
     14          6           0       -1.111610    0.199070    0.000000
     15          6           0       -2.427120    0.672159    0.000000
     16          6           0       -2.690530    2.109584    0.000000
     17          6           0       -1.597651    3.006202    0.000000
     18          6           0       -0.255758    2.514597    0.000000
     19          6           0        1.585214   -0.792046    0.000000
     20          6           0        2.854772   -1.297416    0.000000
     21          6           0        0.481114   -1.707361    0.000000
     22          6           0        0.708273   -3.094803    0.000000
     23          6           0       -0.413915   -3.971349    0.000000
     24          6           0       -1.679763   -3.497855    0.000000
     25          6           0       -1.936310   -2.102686    0.000000
     26          6           0       -0.856173   -1.202375    0.000000
     27          6           0        2.052517   -3.604067    0.000000
     28          6           0        3.122468   -2.683624    0.000000
     29          6           0        4.454819   -3.157594    0.000000
     30          6           0        4.723553   -4.495286    0.000000
     31          6           0        3.661984   -5.416893    0.000000
     32          6           0        2.365273   -4.982483    0.000000
     33          1           0       -4.078361   -2.300582    0.000000
     34          1           0       -4.508582    0.081930    0.000000
     35          1           0        2.952899    3.630859    0.000000
     36          1           0        3.391259    1.251595    0.000000
     37          1           0       -0.908551    6.365048    0.000000
     38          1           0        1.392521    5.515602    0.000000
     39          1           0       -4.837699    1.983446    0.000000
     40          1           0       -5.215240    4.381555    0.000000
     41          1           0       -3.310193    5.954233    0.000000
     42          1           0        3.711820   -0.638758    0.000000
     43          1           0       -0.258780   -5.040056    0.000000
     44          1           0       -2.520609   -4.181111    0.000000
     45          1           0        5.262416   -2.434891    0.000000
     46          1           0        5.746749   -4.848567    0.000000
     47          1           0        3.872455   -6.478815    0.000000
     48          1           0        1.575404   -5.719656    0.000000
 ---------------------------------------------------------------------

 SCF Done:  E(RwB97XD) =  -1229.14927000     A.U. after    1 cycles

 The electronic state is 1-A'.
 Alpha  occ. eigenvalues --  -10.30561 -10.30560 -10.30550 -10.30524 -10.30512
 Alpha  occ. eigenvalues --  -10.30493 -10.30469 -10.30431 -10.30345 -10.30306
 Alpha  occ. eigenvalues --  -10.30256 -10.30207 -10.30126 -10.30038 -10.30019
 Alpha  occ. eigenvalues --  -10.29964 -10.29272 -10.29215 -10.29189 -10.29184
 Alpha  occ. eigenvalues --  -10.29172 -10.29171 -10.29154 -10.29134 -10.29132
 Alpha  occ. eigenvalues --  -10.29101 -10.29097 -10.29087 -10.29071 -10.29048
 Alpha  occ. eigenvalues --  -10.29028 -10.29018  -1.01606  -0.99644  -0.97717
 Alpha  occ. eigenvalues --   -0.96821  -0.94505  -0.93717  -0.90592  -0.90341
 Alpha  occ. eigenvalues --   -0.89392  -0.87212  -0.85919  -0.85058  -0.84038
 Alpha  occ. eigenvalues --   -0.82956  -0.82079  -0.80263  -0.74741  -0.74475
 Alpha  occ. eigenvalues --   -0.74096  -0.73266  -0.71696  -0.71294  -0.70088
 Alpha  occ. eigenvalues --   -0.67108  -0.65726  -0.65003  -0.63618  -0.63002
 Alpha  occ. eigenvalues --   -0.61786  -0.60028  -0.59434  -0.58506  -0.57449
 Alpha  occ. eigenvalues --   -0.56709  -0.56060  -0.54673  -0.54406  -0.53239
 Alpha  occ. eigenvalues --   -0.52853  -0.52840  -0.51899  -0.51524  -0.51292
 Alpha  occ. eigenvalues --   -0.50420  -0.50320  -0.50056  -0.49414  -0.48768
 Alpha  occ. eigenvalues --   -0.48065  -0.48035  -0.47038  -0.46953  -0.46087
 Alpha  occ. eigenvalues --   -0.45286  -0.44565  -0.44114  -0.43980  -0.43111
 Alpha  occ. eigenvalues --   -0.43011  -0.41514  -0.39988  -0.39470  -0.39299
 Alpha  occ. eigenvalues --   -0.38919  -0.37760  -0.35918  -0.34175  -0.32498
 Alpha  occ. eigenvalues --   -0.31917  -0.30032  -0.28673  -0.25343
 Alpha virt. eigenvalues --   -0.02315   0.00688   0.01839   0.03060   0.04421
 Alpha virt. eigenvalues --    0.05427   0.06876   0.10241   0.11868   0.11940
 Alpha virt. eigenvalues --    0.12131   0.12294   0.12600   0.13555   0.13692

 Mulliken charges:
               1
     1  C   -0.199506
     2  C   -0.199544
     3  C    0.126800
     4  C   -0.200918
     5  C   -0.167601
     6  C    0.179172
     7  C   -0.178089
     8  C   -0.182778
     9  C    0.164061
    10  C   -0.195191
    11  C   -0.083846
    12  C   -0.182437
    13  C   -0.015496
    14  C    0.008247
    15  C    0.183140
    16  C    0.096036
    17  C   -0.091498
    18  C   -0.033655
    19  C    0.114265
    20  C   -0.334726
    21  C   -0.064119
    22  C    0.220214
    23  C   -0.217696
    24  C   -0.203479
    25  C    0.184336
    26  C   -0.028152
    27  C    0.103810
    28  C    0.170394
    29  C   -0.207399
    30  C   -0.109490
    31  C   -0.094404
    32  C   -0.223350
    33  H    0.102241
    34  H    0.094643
    35  H    0.101574
    36  H    0.098882
    37  H    0.105648
    38  H    0.106090
    39  H    0.097447
    40  H    0.112483
    41  H    0.107129
    42  H    0.094033
    43  H    0.095338
    44  H    0.103175
    45  H    0.108170
    46  H    0.116799
    47  H    0.116155
    48  H    0.103091
 Sum of Mulliken charges =   0.00000

 Dipole moment (field-independent basis, Debye):
    X=              0.0001    Y=             -0.0053    Z=              0.0000  Tot=              0.0053
 Quadrupole moment (field-independent basis, Debye-Ang):
   XX=           -154.8600   YY=           -154.6533   ZZ=           -191.8890
   XY=             -0.3483   XZ=              0.0000   YZ=              0.0000

  Exact polarizability: 518.171-123.361 571.077   0.000   0.000 154.925
 Approx polarizability: 615.575 -76.047 594.531   0.000   0.000 221.879

                      1                      2                      3
                     A"                     A"                     A"
 Frequencies --     22.7263                47.3995                73.8401
 Red. masses --      5.4805                 4.6546                 4.7323
 Frc consts  --      0.0017                 0.0062                 0.0152
 IR Inten    --      0.0272                 0.2424                 0.1035

                      4                      5                      6
                     A"                     A"                     A'
 Frequencies --     81.3081               119.6693               156.4426
 Red. masses --      4.3950                 4.4997                 5.6115
 Frc consts  --      0.0171                 0.0380                 0.0809
 IR Inten    --      0.0074                 3.6208                 0.3861

                      7                      8                      9
                     A"                     A"                     A"
 Frequencies --    158.4655               178.9121               219.0453
 Red. masses --      4.3592                 4.7955                 4.2877
 Frc consts  --      0.0645                 0.0904                 0.1212
 IR Inten    --      0.3521                 0.3117                 0.1974

                     10                     11                     12
                     A"                     A'                     A"
 Frequencies --    257.6508               263.4407               266.1374
 Red. masses --      4.0475                 7.2079                 4.3686
 Frc consts  --      0.1583                 0.2947                 0.1823
 IR Inten    --      0.3100                 0.1085                 1.8064

                     13                     14                     15
                     A'                     A"                     A'
 Frequencies --    279.1446               298.6415               340.2724
 Red. masses --      5.4595                 4.1226                 7.5973
 Frc consts  --      0.2506                 0.2166                 0.5183
 IR Inten    --      0.0570                 1.5228                 0.1087

                     16                     17                     18
                     A"                     A"                     A'
 Frequencies --    346.4360               361.4548               404.3690
 Red. masses --      4.6717                 5.2122                 7.2923
 Frc consts  --      0.3303                 0.4012                 0.7025
 IR Inten    --      0.0096                 2.2013                 0.1030

                     19                     20                     21
                     A'                     A"                     A'
 Frequencies --    420.9823               431.3405               448.2023
 Red. masses --      5.3515                 3.9706                 6.1528
 Frc consts  --      0.5588                 0.4353                 0.7282
 IR Inten    --      1.1339                 0.0152                 0.3581

                     22                     23                     24
                     A'                     A"                     A"
 Frequencies --    462.5044               471.6666               495.4355
 Red. masses --      7.2829                 3.3633                 3.3414
 Frc consts  --      0.9179                 0.4408                 0.4832
 IR Inten    --      0.2856                 3.0734                 2.2458

                     25                     26                     27
                     A"                     A'                     A'
 Frequencies --    501.4525               514.3309               532.6612
 Red. masses --      4.1662                 4.9576                 5.4170
 Frc consts  --      0.6172                 0.7727                 0.9055
 IR Inten    --      0.5570                 2.2235                 0.0029

                     28                     29                     30
                     A"                     A'                     A"
 Frequencies --    546.3806               551.3339               559.9086
 Red. masses --      3.2521                 6.3975                 3.4076
 Frc consts  --      0.5720                 1.1457                 0.6294
 IR Inten    --      0.5752                 6.3342                 6.2035

                     31                     32                     33
                     A'                     A"                     A'
 Frequencies --    575.0491               592.4139               598.6631
 Red. masses --      7.0856                 3.9549                 7.5507
 Frc consts  --      1.3805                 0.8178                 1.5944
 IR Inten    --      5.1534                 2.0114                 0.3372

                     34                     35                     36
                     A'                     A"                     A"
 Frequencies --    612.7823               621.7840               634.2698
 Red. masses --      7.0174                 3.5993                 3.8318
 Frc consts  --      1.5525                 0.8199                 0.9082
 IR Inten    --      0.0928                 0.1355                16.1563

                     37                     38                     39
                     A'                     A"                     A'
 Frequencies --    640.1805               656.3596               661.0122
 Red. masses --      5.5790                 3.9985                 6.8926
 Frc consts  --      1.3471                 1.0149                 1.7744
 IR Inten    --      0.8631                 1.3196                 5.5412

                     40                     41                     42
                     A'                     A"                     A'
 Frequencies --    708.7896               710.2784               726.8969
 Red. masses --      6.4242                 2.8378                 6.7222
 Frc consts  --      1.9015                 0.8435                 2.0927
 IR Inten    --      1.2253                 0.9040                 0.4745

                     43                     44                     45
                     A'                     A"                     A"
 Frequencies --    737.8113               759.9495               766.6053
 Red. masses --      6.7985                 1.5801                 4.5662
 Frc consts  --      2.1805                 0.5376                 1.5810
 IR Inten    --      1.5952                 0.6717                 5.3241

                     46                     47                     48
                     A"                     A'                     A"
 Frequencies --    774.8274               784.0909               786.2619
 Red. masses --      1.4791                 5.7647                 1.3286
 Frc consts  --      0.5232                 2.0881                 0.4839
 IR Inten    --     67.3159                 0.7804                 5.2428

                     49                     50                     51
                     A"                     A'                     A"
 Frequencies --    791.6854               819.4334               837.4951
 Red. masses --      1.7492                 6.8975                 2.4225
 Frc consts  --      0.6459                 2.7288                 1.0011
 IR Inten    --      8.3283                 2.4175                17.1383

                     52                     53                     54
                     A"                     A"                     A'
 Frequencies --    842.4994               865.8333               866.3974
 Red. masses --      2.1332                 1.8005                 6.1042
 Frc consts  --      0.8921                 0.7953                 2.6997
 IR Inten    --      0.8070                13.6232                 0.4710

                     55                     56                     57
                     A"                     A"                     A"
 Frequencies --    867.4411               874.3321               891.1889
 Red. masses --      1.8448                 1.9748                 3.0740
 Frc consts  --      0.8179                 0.8894                 1.4384
 IR Inten    --     56.2878                 0.0179                28.0629

                     58                     59                     60
                     A'                     A"                     A'
 Frequencies --    905.6211               912.8658               920.2169
 Red. masses --      5.7141                 3.3124                 4.9693
 Frc consts  --      2.7611                 1.6263                 2.4793
 IR Inten    --      9.7073                 9.5814                 1.9132

                     61                     62                     63
                     A"                     A"                     A"
 Frequencies --    922.6465               933.0276               964.7093
 Red. masses --      1.4993                 4.4913                 1.3262
 Frc consts  --      0.7520                 2.3036                 0.7272
 IR Inten    --      1.6735                 3.5249                 0.4687

                     64                     65                     66
                     A'                     A"                     A"
 Frequencies --    967.8804               972.8977               973.8194
 Red. masses --      6.5351                 1.3317                 1.3475
 Frc consts  --      3.6070                 0.7427                 0.7529
 IR Inten    --      1.5821                 0.0009                 2.2206

                     67                     68                     69
                     A"                     A"                     A'
 Frequencies --    985.7488               989.1603               989.8873
 Red. masses --      1.3199                 1.3073                 6.0890
 Frc consts  --      0.7556                 0.7536                 3.5154
 IR Inten    --      0.0418                 0.0347                 2.0073

                     70                     71                     72
                     A"                     A"                     A'
 Frequencies --    998.7399               999.3099              1048.8261
 Red. masses --      1.2848                 1.3178                 5.4089
 Frc consts  --      0.7551                 0.7753                 3.5056
 IR Inten    --      0.1504                 0.0067                 2.2995

                     73                     74                     75
                     A'                     A'                     A'
 Frequencies --   1064.0061              1089.2272              1112.1446
 Red. masses --      2.2386                 3.9662                 3.5838
 Frc consts  --      1.4932                 2.7724                 2.6117
 IR Inten    --      4.6898                 1.1089                 1.2016

                     76                     77                     78
                     A'                     A'                     A'
 Frequencies --   1120.2061              1146.6671              1165.6154
 Red. masses --      2.4098                 1.8909                 2.0898
 Frc consts  --      1.7817                 1.4648                 1.6729
 IR Inten    --      1.0639                 3.5065                 0.8619

                     79                     80                     81
                     A'                     A'                     A'
 Frequencies --   1171.5229              1182.0745              1194.6360
 Red. masses --      1.5644                 1.2756                 1.3300
 Frc consts  --      1.2650                 1.0501                 1.1184
 IR Inten    --      1.5365                 0.8191                 0.6677

                     82                     83                     84
                     A'                     A'                     A'
 Frequencies --   1201.4377              1213.3649              1232.8873
 Red. masses --      1.1699                 1.4826                 1.5384
 Frc consts  --      0.9950                 1.2861                 1.3777
 IR Inten    --      0.4679                 7.3654                 8.8142

                     85                     86                     87
                     A'                     A'                     A'
 Frequencies --   1239.4968              1248.7237              1257.6724
 Red. masses --      1.4711                 1.8938                 2.8654
 Frc consts  --      1.3316                 1.7398                 2.6704
 IR Inten    --      0.5992                 2.3421                 0.6402

                     88                     89                     90
                     A'                     A'                     A'
 Frequencies --   1276.8054              1277.8611              1287.4718
 Red. masses --      1.7517                 1.9774                 1.9086
 Frc consts  --      1.6825                 1.9024                 1.8640
 IR Inten    --      3.1644                 2.2691                 1.3685

                     91                     92                     93
                     A'                     A'                     A'
 Frequencies --   1313.8365              1317.0115              1334.2274
 Red. masses --      2.3439                 2.3196                 2.8117
 Frc consts  --      2.3838                 2.3705                 2.9490
 IR Inten    --      3.0897                 8.7102                 7.4976

                     94                     95                     96
                     A'                     A'                     A'
 Frequencies --   1363.4266              1372.1497              1384.9339
 Red. masses --      3.3909                 3.8002                 3.6709
 Frc consts  --      3.7139                 4.2156                 4.1484
 IR Inten    --      2.0631                 5.9693                 1.0815

                     97                     98                     99
                     A'                     A'                     A'
 Frequencies --   1399.3263              1407.8525              1416.3832
 Red. masses --      6.0036                 4.4173                 4.4320
 Frc consts  --      6.9263                 5.1585                 5.2386
 IR Inten    --      5.1912                 2.4534                 3.8567

                    100                    101                    102
                     A'                     A'                     A'
 Frequencies --   1418.0989              1436.2009              1444.0722
 Red. masses --      6.1716                 4.7370                 4.5391
 Frc consts  --      7.3125                 5.7569                 5.5770
 IR Inten    --      0.2374                 2.1767                 1.4931

                    103                    104                    105
                     A'                     A'                     A'
 Frequencies --   1460.1766              1475.3381              1482.8986
 Red. masses --      3.2712                 2.1020                 2.9739
 Frc consts  --      4.1093                 2.6957                 3.8530
 IR Inten    --      3.9761                 0.9094                11.8494

                    106                    107                    108
                     A'                     A'                     A'
 Frequencies --   1491.2348              1499.5291              1514.6202
 Red. masses --      3.0048                 3.1516                 4.6083
 Frc consts  --      3.9369                 4.1754                 6.2287
 IR Inten    --      3.7282                 1.9800                 5.8985

                    109                    110                    111
                     A'                     A'                     A'
 Frequencies --   1529.9502              1563.5787              1572.1080
 Red. masses --      3.8605                 3.7604                 4.4665
 Frc consts  --      5.3242                 5.4165                 6.5040
 IR Inten    --     15.7069                 4.4652                 0.6177

                    112                    113                    114
                     A'                     A'                     A'
 Frequencies --   1581.3626              1588.7030              1624.0327
 Red. masses --      4.4855                 4.2950                 6.3984
 Frc consts  --      6.6088                 6.3871                 9.9429
 IR Inten    --      0.2936                 1.6546                 0.0487

                    115                    116                    117
                     A'                     A'                     A'
 Frequencies --   1654.0915              1662.8012              1670.9568
 Red. masses --      6.9419                 6.5678                 6.7852
 Frc consts  --     11.1904                10.6992                11.1620
 IR Inten    --      2.1859                 1.6473                11.5721

                    118                    119                    120
                     A'                     A'                     A'
 Frequencies --   1682.0219              1690.3170              1694.6315
 Red. masses --      7.1982                 6.7474                 6.6129
 Frc consts  --     11.9988                11.3586                11.1891
 IR Inten    --      3.3219                 1.0223                 0.2826

                    121                    122                    123
                     A'                     A'                     A'
 Frequencies --   1703.1505              1709.9047              3188.5214
 Red. masses --      6.8546                 7.4441                 1.0865
 Frc consts  --     11.7150                12.8235                 6.5084
 IR Inten    --      6.9690                 1.3943                 0.5997

                    124                    125                    126
                     A'                     A'                     A'
 Frequencies --   3189.5512              3193.7027              3194.1223
 Red. masses --      1.0870                 1.0879                 1.0889
 Frc consts  --      6.5152                 6.5378                 6.5457
 IR Inten    --      1.7274                 0.9125                 0.3986

                    127                    128                    129
                     A'                     A'                     A'
 Frequencies --   3194.7381              3196.2380              3202.0445
 Red. masses --      1.0896                 1.0894                 1.0896
 Frc consts  --      6.5523                 6.5574                 6.5824
 IR Inten    --     11.4170                16.0943                 8.7913

                    130                    131                    132
                     A'                     A'                     A'
 Frequencies --   3208.2076              3210.9778              3215.5196
 Red. masses --      1.0972                 1.0938                 1.0918
 Frc consts  --      6.6535                 6.6447                 6.6511
 IR Inten    --     21.5694                33.8324                 6.5808

                    133                    134                    135
                     A'                     A'                     A'
 Frequencies --   3216.6588              3227.0510              3228.5166
 Red. masses --      1.0944                 1.0964                 1.0949
 Frc consts  --      6.6718                 6.7269                 6.7238
 IR Inten    --     14.5600                 7.0786                 0.5220

                    136                    137                    138
                     A'                     A'                     A'
 Frequencies --   3241.4852              3242.3614              3246.4973
 Red. masses --      1.0912                 1.0895                 1.0896
 Frc consts  --      6.7553                 6.7483                 6.7665
 IR Inten    --     21.6796                10.0767                16.8755

 - Thermochemistry -
 -------------------
 Temperature   298.150 Kelvin.  Pressure   1.00000 Atm.
 Atom     1 has atomic number  6 and mass  12.00000

 Molecular mass:   400.12520 amu.
 Principal axes and moments of inertia in atomic units:
                           1         2         3
     Eigenvalues --  5631.86050********************
           X           -0.52518   0.85099   0.00000
           Y            0.85099   0.52518   0.00000
           Z            0.00000   0.00000   1.00000
 This molecule is an asymmetric top.
 Rotational symmetry number  1.
 Warning -- assumption of classical behavior for rotation
           may cause significant error
 Rotational temperatures (Kelvin)      0.01538     0.00477     0.00364
 Rotational constants (GHZ):           0.32045     0.09932     0.07582
 Zero-point vibrational energy     990736.4 (Joules/Mol)
                                  236.79167 (Kcal/Mol)
 Warning -- explicit consideration of  34 degrees of freedom as
           vibrations may cause significant error
 Vibrational temperatures:     32.70    68.20   106.24   116.98   172.18
          (Kelvin)            225.09   228.00   257.41   315.16   370.70
                              379.03   382.91   401.63   429.68   489.58
                              498.44   520.05   581.80   605.70   620.60
                              644.86   665.44   678.62   712.82   721.48
                              740.01   766.38   786.12   793.25   805.58
                              827.37   852.35   861.34   881.66   894.61
                              912.57   921.08   944.35   951.05  1019.79
                             1021.93  1045.84  1061.54  1093.40  1102.97
                             1114.80  1128.13  1131.25  1139.06  1178.98
                             1204.97  1212.17  1245.74  1246.55  1248.05
                             1257.97  1282.22  1302.99  1313.41  1323.99
                             1327.48  1342.42  1388.00  1392.56  1399.78
                             1401.11  1418.27  1423.18  1424.23  1436.96
                             1437.78  1509.02  1530.87  1567.15  1600.13
                             1611.72  1649.80  1677.06  1685.56  1700.74
                             1718.81  1728.60  1745.76  1773.85  1783.36
                             1796.63  1809.51  1837.04  1838.55  1852.38
                             1890.32  1894.88  1919.65  1961.66  1974.21
                             1992.61  2013.32  2025.58  2037.86  2040.33
                             2066.37  2077.70  2100.87  2122.68  2133.56
                             2145.55  2157.49  2179.20  2201.25  2249.64
                             2261.91  2275.23  2285.79  2336.62  2379.87
                             2392.40  2404.13  2420.05  2431.99  2438.19
                             2450.45  2460.17  4587.57  4589.05  4595.02
                             4595.62  4596.51  4598.67  4607.02  4615.89
                             4619.88  4626.41  4628.05  4643.00  4645.11
                             4663.77  4665.03  4670.98

 Zero-point correction=                           0.377352 (Hartree/Particle)
 Thermal correction to Energy=                    0.396896
 Thermal correction to Enthalpy=                  0.397841
 Thermal correction to Gibbs Free Energy=         0.330036
 Sum of electronic and zero-point Energies=          -1228.771918
 Sum of electronic and thermal Energies=             -1228.752374
 Sum of electronic and thermal Enthalpies=           -1228.751429
 Sum of electronic and thermal Free Energies=        -1228.819234

                     E (Thermal)             CV                S
                      KCal/Mol        Cal/Mol-Kelvin    Cal/Mol-Kelvin
 Total                  249.056             86.462            142.706
 Electronic               0.000              0.000              0.000
 Translational            0.889              2.981             43.851
 Rotational               0.889              2.981             36.142
 Vibrational            247.279             80.500             62.713
 Vibration     1          0.593              1.985              6.380
 Vibration     2          0.595              1.979              4.923
 Vibration     3          0.599              1.966              4.048
 Vibration     4          0.600              1.962              3.859
 Vibration     5          0.609              1.933              3.106
 Vibration     6          0.620              1.895              2.592
 Vibration     7          0.621              1.893              2.568
 Vibration     8          0.629              1.868              2.340
 Vibration     9          0.647              1.812              1.967
 Vibration    10          0.667              1.750              1.678
 Vibration    11          0.670              1.740              1.639
 Vibration    12          0.672              1.735              1.621
 Vibration    13          0.679              1.712              1.539
 Vibration    14          0.692              1.676              1.425
 Vibration    15          0.720              1.595              1.211
 Vibration    16          0.724              1.583              1.182
 Vibration    17          0.736              1.552              1.116
 Vibration    18          0.770              1.461              0.947
 Vibration    19          0.783              1.425              0.889
 Vibration    20          0.792              1.402              0.854
 Vibration    21          0.807              1.365              0.801
 Vibration    22          0.820              1.333              0.759
 Vibration    23          0.829              1.313              0.733
 Vibration    24          0.851              1.260              0.670
 Vibration    25          0.857              1.247              0.655
 Vibration    26          0.869              1.218              0.623
 Vibration    27          0.888              1.178              0.581
 Vibration    28          0.902              1.148              0.552
 Vibration    29          0.907              1.137              0.541
 Vibration    30          0.916              1.118              0.524
 Vibration    31          0.931              1.085              0.495
 Vibration    32          0.950              1.048              0.463
 Vibration    33          0.957              1.035              0.452
 Vibration    34          0.972              1.005              0.428

 Optimization completed.
    -- Stationary point found.
 Normal termination of Gaussian 09 at Sun Jul 28 01:16:16 2019.
