 Gaussian 09, Revision D.01,
 Gaussian 09:  AM64L-G09RevD.01 24-Apr-2013

 ----------------------------------------------------------------------
 #P wB97XD/def2tzvp opt=(tight) freq integral(Grid=ultrafine) # SCF(Max
 Cycle=380) 5d 7f GFPrint
 ----------------------------------------------------------------------

 ---------------------------------------
 The PBEPBE optimization and frequencies
 ---------------------------------------
 Symbolic Z-matrix:
 Charge =  0 Multiplicity = 1

 SCF Done:  E(RwB97XD) =  -539.449941047     A.U. after   13 cycles
 SCF Done:  E(RwB97XD) =  -539.450263887     A.U. after   10 cycles
 SCF Done:  E(RwB97XD) =  -539.450273360     A.U. after    8 cycles
 SCF Done:  E(RwB97XD) =  -539.450273765     A.U. after    7 cycles
 Optimization completed.
    -- Stationary point found.
 Normal termination of Gaussian 09 at Thu Sep 28 16:26:50 2023.

 ---------------------------------------------------------------------
 #P Geom=AllCheck Guess=TCheck SCRF=Check GenChk RwB97XD/def2TZVP Freq
 ---------------------------------------------------------------------

 Structure from the checkpoint file:  "m1_00_501-65-50_C14H10_wB97XD.chk"
 ---------------------------------------
 The PBEPBE optimization and frequencies
 ---------------------------------------
 Charge =  0 Multiplicity = 1

                         Standard orientation:
 ---------------------------------------------------------------------
 Center     Atomic      Atomic             Coordinates (Angstroms)
 Number     Number       Type             X           Y           Z
 ---------------------------------------------------------------------
      1          6           0        0.000000    0.000000    0.601530
      2          6           0        0.000000    0.000000   -0.601530
      3          6           0        0.000000    0.000000    2.028808
      4          6           0        0.000000    0.000000   -2.028808
      5          6           0        0.000000    1.204149    2.736658
      6          6           0        0.000000   -1.204149    2.736658
      7          6           0        0.000000   -1.204149   -2.736658
      8          6           0        0.000000    1.204149   -2.736658
      9          6           0        0.000000    1.200278    4.120380
     10          6           0        0.000000   -1.200278    4.120380
     11          6           0        0.000000   -1.200278   -4.120380
     12          6           0        0.000000    1.200278   -4.120380
     13          6           0        0.000000    0.000000    4.816177
     14          6           0        0.000000    0.000000   -4.816177
     15          1           0        0.000000    2.138231    2.190370
     16          1           0        0.000000   -2.138231    2.190370
     17          1           0        0.000000   -2.138231   -2.190370
     18          1           0        0.000000    2.138231   -2.190370
     19          1           0        0.000000    2.139454    4.658833
     20          1           0        0.000000   -2.139454    4.658833
     21          1           0        0.000000   -2.139454   -4.658833
     22          1           0        0.000000    2.139454   -4.658833
     23          1           0        0.000000    0.000000    5.898682
     24          1           0        0.000000    0.000000   -5.898682
 ---------------------------------------------------------------------

 SCF Done:  E(RwB97XD) =  -539.450273765     A.U. after    1 cycles

 The electronic state is 1-AG.
 Alpha  occ. eigenvalues --  -10.31706 -10.31705 -10.29558 -10.29558 -10.29556
 Alpha  occ. eigenvalues --  -10.29556 -10.29401 -10.29401 -10.29343 -10.29343
 Alpha  occ. eigenvalues --  -10.29312 -10.29312 -10.28757 -10.28497  -0.97475
 Alpha  occ. eigenvalues --   -0.97198  -0.89591  -0.87222  -0.85571  -0.85555
 Alpha  occ. eigenvalues --   -0.81801  -0.73332  -0.70944  -0.70797  -0.70535
 Alpha  occ. eigenvalues --   -0.64338  -0.62733  -0.57900  -0.56615  -0.55480
 Alpha  occ. eigenvalues --   -0.54956  -0.52960  -0.52267  -0.51500  -0.51461
 Alpha  occ. eigenvalues --   -0.48536  -0.47389  -0.44765  -0.44287  -0.43805
 Alpha  occ. eigenvalues --   -0.43400  -0.40965  -0.35613  -0.35488  -0.34064
 Alpha  occ. eigenvalues --   -0.34037  -0.28980
 Alpha virt. eigenvalues --    0.00727   0.05180   0.05301   0.06640   0.11761
 Alpha virt. eigenvalues --    0.12295   0.12607   0.14491   0.14779   0.16134
 Alpha virt. eigenvalues --    0.17274   0.17323   0.17742   0.18129   0.18405

 Mulliken charges:
               1
     1  C    0.103040
     2  C    0.103040
     3  C    0.029256
     4  C    0.029256
     5  C   -0.185895
     6  C   -0.185895
     7  C   -0.185895
     8  C   -0.185895
     9  C   -0.145996
    10  C   -0.145996
    11  C   -0.145996
    12  C   -0.145996
    13  C   -0.086709
    14  C   -0.086709
    15  H    0.127332
    16  H    0.127332
    17  H    0.127332
    18  H    0.127332
    19  H    0.120449
    20  H    0.120449
    21  H    0.120449
    22  H    0.120449
    23  H    0.122634
    24  H    0.122634
 Sum of Mulliken charges =   0.00000

 Dipole moment (field-independent basis, Debye):
    X=              0.0000    Y=              0.0000    Z=              0.0000  Tot=              0.0000
 Quadrupole moment (field-independent basis, Debye-Ang):
   XX=            -87.8561   YY=            -70.8926   ZZ=            -63.3124
   XY=              0.0000   XZ=              0.0000   YZ=              0.0000

  Exact polarizability:  80.648   0.000 152.208   0.000   0.000 294.643
 Approx polarizability: 102.055   0.000 187.248   0.000   0.000 270.786

                      1                      2                      3
                     AU                     B2U                    B3U
 Frequencies --     15.7050                43.8849                51.0213
 Red. masses --      3.6376                 4.7489                 5.5023
 Frc consts  --      0.0005                 0.0054                 0.0084
 IR Inten    --      0.0000                 0.5550                 1.2855

                      4                      5                      6
                     B2G                    B3G                    AG
 Frequencies --    142.5552               156.4681               261.8586
 Red. masses --      4.8454                 4.9061                 6.4269
 Frc consts  --      0.0580                 0.0708                 0.2596
 IR Inten    --      0.0000                 0.0000                 0.0000

                      7                      8                      9
                     B3U                    B2G                    AU
 Frequencies --    291.2427               412.9143               415.1569
 Red. masses --      5.1088                 4.6311                 2.9048
 Frc consts  --      0.2553                 0.4652                 0.2950
 IR Inten    --      0.1972                 0.0000                 0.0000

                     10                     11                     12
                     B1G                    B2U                    B3U
 Frequencies --    416.4358               481.1637               534.8597
 Red. masses --      2.9094                 6.7720                 3.2396
 Frc consts  --      0.2973                 0.9237                 0.5460
 IR Inten    --      0.0000                 1.8871                15.8656

                     13                     14                     15
                     B1U                    B2G                    B3G
 Frequencies --    553.3320               583.3210               589.0155
 Red. masses --      7.8086                 3.9511                 7.9419
 Frc consts  --      1.4086                 0.7921                 1.6234
 IR Inten    --     13.3280                 0.0000                 0.0000

                     16                     17                     18
                     B2U                    B3G                    B2G
 Frequencies --    641.0389               648.6783               715.3660
 Red. masses --      6.4954                 6.9207                 1.8621
 Frc consts  --      1.5726                 1.7158                 0.5614
 IR Inten    --      0.0011                 0.0000                 0.0000

                     19                     20                     21
                     B3U                    AG                     B3U
 Frequencies --    715.9035               722.2511               789.1254
 Red. masses --      1.8354                 6.1428                 1.8116
 Frc consts  --      0.5542                 1.8880                 0.6647
 IR Inten    --     74.1775                 0.0000                87.6482

                     22                     23                     24
                     B2G                    B1U                    AU
 Frequencies --    789.8853               867.3514               871.1084
 Red. masses --      1.8424                 5.8467                 1.2495
 Frc consts  --      0.6773                 2.5915                 0.5586
 IR Inten    --      0.0000                 1.4941                 0.0000

                     25                     26                     27
                     B1G                    B2G                    B3U
 Frequencies --    871.6936               952.3830               953.2589
 Red. masses --      1.2482                 1.4370                 1.4356
 Frc consts  --      0.5588                 0.7679                 0.7686
 IR Inten    --      0.0000                 0.0000                 6.9946

                     28                     29                     30
                     AU                     B1G                    B2G
 Frequencies --    997.1790               997.4460              1011.4378
 Red. masses --      1.3668                 1.3660                 1.2835
 Frc consts  --      0.8008                 0.8007                 0.7736
 IR Inten    --      0.0000                 0.0000                 0.0000

                     31                     32                     33
                     B3U                    B1U                    AG
 Frequencies --   1011.4876              1026.9202              1027.5432
 Red. masses --      1.2837                 6.2321                 6.2150
 Frc consts  --      0.7738                 3.8722                 3.8662
 IR Inten    --      0.1962                 0.1560                 0.0000

                     34                     35                     36
                     AG                     B1U                    B3G
 Frequencies --   1061.4587              1063.7989              1113.2904
 Red. masses --      2.2990                 2.0358                 1.5371
 Frc consts  --      1.5262                 1.3574                 1.1225
 IR Inten    --      0.0000                 9.3607                 0.0000

                     37                     38                     39
                     B2U                    AG                     B2U
 Frequencies --   1114.0172              1176.4082              1189.6877
 Red. masses --      1.5323                 3.1806                 1.1499
 Frc consts  --      1.1204                 2.5934                 0.9589
 IR Inten    --     11.8386                 0.0000                 0.1076

                     40                     41                     42
                     B3G                    B1U                    AG
 Frequencies --   1189.7321              1211.7582              1213.6049
 Red. masses --      1.1495                 1.1199                 1.1633
 Frc consts  --      0.9587                 0.9688                 1.0095
 IR Inten    --      0.0000                 0.4253                 0.0000

                     43                     44                     45
                     B3G                    B2U                    B1U
 Frequencies --   1316.4401              1318.4621              1346.4195
 Red. masses --      3.9479                 4.1551                 3.6728
 Frc consts  --      4.0311                 4.2557                 3.9229
 IR Inten    --      0.0000                 0.4541                 3.4360

                     46                     47                     48
                     B3G                    B2U                    B3G
 Frequencies --   1360.2453              1361.1090              1490.7081
 Red. masses --      1.4964                 1.4639                 2.2438
 Frc consts  --      1.6313                 1.5979                 2.9377
 IR Inten    --      0.0000                 0.8209                 0.0000

                     49                     50                     51
                     B2U                    AG                     B1U
 Frequencies --   1492.6115              1536.6805              1554.9525
 Red. masses --      2.2584                 2.2157                 2.6456
 Frc consts  --      2.9644                 3.0827                 3.7688
 IR Inten    --     10.7400                 0.0000                50.4707

                     52                     53                     54
                     B3G                    B2U                    AG
 Frequencies --   1645.2646              1646.7294              1674.4158
 Red. masses --      5.5835                 5.6392                 5.7185
 Frc consts  --      8.9048                 9.0097                 9.4463
 IR Inten    --      0.0000                 3.2316                 0.0000

                     55                     56                     57
                     B1U                    AG                     B1U
 Frequencies --   1681.8475              2358.1382              3195.4679
 Red. masses --      5.9152                11.9978                 1.0856
 Frc consts  --      9.8580                39.3090                 6.5310
 IR Inten    --     27.2055                 0.0000                 2.3144

                     58                     59                     60
                     AG                     B3G                    B2U
 Frequencies --   3195.5212              3204.4633              3204.4890
 Red. masses --      1.0856                 1.0888                 1.0888
 Frc consts  --      6.5313                 6.5873                 6.5876
 IR Inten    --      0.0000                 0.0000                 5.1455

                     61                     62                     63
                     B1U                    AG                     B3G
 Frequencies --   3213.7440              3213.7880              3221.2655
 Red. masses --      1.0925                 1.0925                 1.0953
 Frc consts  --      6.6479                 6.6480                 6.6965
 IR Inten    --     24.0414                 0.0000                 0.0000

                     64                     65                     66
                     B2U                    B1U                    AG
 Frequencies --   3221.3401              3226.5082              3226.6357
 Red. masses --      1.0954                 1.0987                 1.0987
 Frc consts  --      6.6970                 6.7390                 6.7397
 IR Inten    --     29.5767                16.1589                 0.0000

 - Thermochemistry -
 -------------------
 Temperature   298.150 Kelvin.  Pressure   1.00000 Atm.
 Atom     1 has atomic number  6 and mass  12.00000

 Molecular mass:   178.07825 amu.
 Principal axes and moments of inertia in atomic units:
                           1         2         3
     Eigenvalues --   627.201437197.636327824.83775
           X            0.00000   0.00000   1.00000
           Y            0.00000   1.00000   0.00000
           Z            1.00000   0.00000   0.00000
 This molecule is an asymmetric top.
 Rotational symmetry number  4.
 Warning -- assumption of classical behavior for rotation
           may cause significant error
 Rotational temperatures (Kelvin)      0.13810     0.01203     0.01107
 Rotational constants (GHZ):           2.87745     0.25074     0.23064
 Zero-point vibrational energy     507216.6 (Joules/Mol)
                                  121.22768 (Kcal/Mol)
 Warning -- explicit consideration of  15 degrees of freedom as
           vibrations may cause significant error
 Vibrational temperatures:     22.60    63.14    73.41   205.10   225.12
          (Kelvin)            376.76   419.03   594.09   597.32   599.16
                              692.29   769.54   796.12   839.27   847.46
                              922.31   933.30  1029.25  1030.02  1039.16
                             1135.37  1136.47  1247.92  1253.33  1254.17
                             1370.26  1371.53  1434.72  1435.10  1455.23
                             1455.30  1477.51  1478.40  1527.20  1530.57
                             1601.77  1602.82  1692.59  1711.69  1711.76
                             1743.45  1746.10  1894.06  1896.97  1937.19
                             1957.09  1958.33  2144.79  2147.53  2210.94
                             2237.23  2367.17  2369.27  2409.11  2419.80
                             3392.83  4597.56  4597.64  4610.50  4610.54
                             4623.85  4623.92  4634.68  4634.78  4642.22
                             4642.40

 Zero-point correction=                           0.193189 (Hartree/Particle)
 Thermal correction to Energy=                    0.204148
 Thermal correction to Enthalpy=                  0.205092
 Thermal correction to Gibbs Free Energy=         0.154967
 Sum of electronic and zero-point Energies=           -539.257085
 Sum of electronic and thermal Energies=              -539.246126
 Sum of electronic and thermal Enthalpies=            -539.245182
 Sum of electronic and thermal Free Energies=         -539.295307

                     E (Thermal)             CV                S
                      KCal/Mol        Cal/Mol-Kelvin    Cal/Mol-Kelvin
 Total                  128.105             42.758            105.498
 Electronic               0.000              0.000              0.000
 Translational            0.889              2.981             41.438
 Rotational               0.889              2.981             29.181
 Vibrational            126.327             36.796             34.879
 Vibration     1          0.593              1.986              7.114
 Vibration     2          0.595              1.980              5.076
 Vibration     3          0.595              1.977              4.777
 Vibration     4          0.616              1.911              2.769
 Vibration     5          0.620              1.895              2.592
 Vibration     6          0.669              1.743              1.649
 Vibration     7          0.687              1.690              1.467
 Vibration     8          0.777              1.442              0.916
 Vibration     9          0.779              1.437              0.909
 Vibration    10          0.780              1.435              0.904
 Vibration    11          0.837              1.292              0.707
 Vibration    12          0.890              1.173              0.576
 Vibration    13          0.909              1.132              0.537
 Vibration    14          0.940              1.067              0.479
 Vibration    15          0.946              1.055              0.469

 Optimization completed.
    -- Stationary point found.
 Normal termination of Gaussian 09 at Thu Sep 28 16:35:26 2023.
