 Gaussian 09, Revision D.01,
 Gaussian 09:  AM64L-G09RevD.01 24-Apr-2013

 ----------------------------------------------------------------------
 #P wB97XD/def2tzvp opt=(tight) freq integral(Grid=ultrafine) # SCF(Max
 Cycle=380) 5d 7f GFPrint
 ----------------------------------------------------------------------

 ---------------------------------------
 The PBEPBE optimization and frequencies
 ---------------------------------------
 Symbolic Z-matrix:
 Charge =  0 Multiplicity = 1

 SCF Done:  E(RwB97XD) =  -77.3281509993     A.U. after   11 cycles
 SCF Done:  E(RwB97XD) =  -77.3281630969     A.U. after    7 cycles
 SCF Done:  E(RwB97XD) =  -77.3281631860     A.U. after    6 cycles
 Optimization completed.
    -- Stationary point found.

 1\1\GINC-CN506-09-R\FOpt\RwB97XD\def2TZVP\C2H2\MINENKY\09-Jul-2021\0\\
 #P wB97XD/def2tzvp opt=(tight) freq integral(Grid=ultrafine) # SCF(Max
 Cycle=380) 5d 7f GFPrint\\The PBEPBE optimization and frequencies\\0,1
 \C,0.,0.,0.5973210815\C,0.,0.,-0.5973210815\H,0.,0.,1.6613360563\H,0.,
 0.,-1.6613360563\\Version=AM64L-G09RevD.01\State=1-SGG\HF=-77.3281632\
 RMSD=4.185e-09\RMSF=2.755e-07\Dipole=0.,0.,0.\Quadrupole=-1.6993559,-1
 .6993559,3.3987117,0.,0.,0.\PG=D*H [C*(H1C1.C1H1)]\\@

 Normal termination of Gaussian 09 at Fri Jul  9 19:23:02 2021.

 ---------------------------------------------------------------------
 #P Geom=AllCheck Guess=TCheck SCRF=Check GenChk RwB97XD/def2TZVP Freq
 ---------------------------------------------------------------------

 Structure from the checkpoint file:  "m1_00_74-86-20_C2H2_wB97XD.chk"
 ---------------------------------------
 The PBEPBE optimization and frequencies
 ---------------------------------------
 Charge =  0 Multiplicity = 1

                         Standard orientation:
 ---------------------------------------------------------------------
 Center     Atomic      Atomic             Coordinates (Angstroms)
 Number     Number       Type             X           Y           Z
 ---------------------------------------------------------------------
      1          6           0        0.000000    0.000000    0.597321
      2          6           0        0.000000    0.000000   -0.597321
      3          1           0        0.000000    0.000000    1.661336
      4          1           0        0.000000    0.000000   -1.661336
 ---------------------------------------------------------------------

 SCF Done:  E(RwB97XD) =  -77.3281631860     A.U. after    1 cycles

 The electronic state is 1-SGG.
 Alpha  occ. eigenvalues --  -10.29314 -10.29040  -0.85525  -0.66063  -0.58701
 Alpha  occ. eigenvalues --   -0.38065  -0.38065
 Alpha virt. eigenvalues --    0.10095   0.10095   0.13800   0.17034   0.20819
 Alpha virt. eigenvalues --    0.29416   0.29416   0.29818   0.40853   0.40853
 Alpha virt. eigenvalues --    0.42439   0.46660   0.62988   0.67267   0.67267

 Mulliken charges:
               1
     1  C   -0.202257
     2  C   -0.202257
     3  H    0.202257
     4  H    0.202257
 Sum of Mulliken charges =   0.00000

 Dipole moment (field-independent basis, Debye):
    X=              0.0000    Y=              0.0000    Z=              0.0000  Tot=              0.0000
 Quadrupole moment (field-independent basis, Debye-Ang):
   XX=            -13.6272   YY=            -13.6272   ZZ=             -6.7701
   XY=              0.0000   XZ=              0.0000   YZ=              0.0000

  Exact polarizability:  14.548   0.000  14.548   0.000   0.000  30.502
 Approx polarizability:  14.781   0.000  14.781   0.000   0.000  37.361

                      1                      2                      3
                     PIG                    PIG                    PIU
 Frequencies --    675.7844               675.7844               777.3181
 Red. masses --      1.5766                 1.5766                 1.0848
 Frc consts  --      0.4242                 0.4242                 0.3862
 IR Inten    --      0.0000                 0.0000               109.5160

                      4                      5                      6
                     PIU                    SGG                    SGU
 Frequencies --    777.3181              2093.7730              3422.0313
 Red. masses --      1.0848                 3.7484                 1.0848
 Frc consts  --      0.3862                 9.6818                 7.4847
 IR Inten    --    109.5160                 0.0000                91.7380

                      7
                     SGG
 Frequencies --   3525.2287
 Red. masses --      1.2364
 Frc consts  --      9.0530
 IR Inten    --      0.0000

 - Thermochemistry -
 -------------------
 Temperature   298.150 Kelvin.  Pressure   1.00000 Atm.
 Atom     1 has atomic number  6 and mass  12.00000

 Molecular mass:    26.01565 amu.
 Principal axes and moments of inertia in atomic units:
                           1         2         3
     Eigenvalues --     0.00000  50.44589  50.44589
           X            0.00000   1.00000   0.00000
           Y            0.00000   0.00000   1.00000
           Z            1.00000   0.00000   0.00000
 This molecule is a prolate symmetric top.
 Rotational symmetry number  2.
 Rotational temperature (Kelvin)      1.71696
 Rotational constant (GHZ):          35.775779
 Zero-point vibrational energy      71460.4 (Joules/Mol)
                                   17.07943 (Kcal/Mol)
 Vibrational temperatures:    972.30   972.30  1118.39  1118.39  3012.47
          (Kelvin)           4923.53  5072.01

 Zero-point correction=                           0.027218 (Hartree/Particle)
 Thermal correction to Energy=                    0.029995
 Thermal correction to Enthalpy=                  0.030939
 Thermal correction to Gibbs Free Energy=         0.008280
 Sum of electronic and zero-point Energies=            -77.300945
 Sum of electronic and thermal Energies=               -77.298169
 Sum of electronic and thermal Enthalpies=             -77.297224
 Sum of electronic and thermal Free Energies=          -77.319883

                     E (Thermal)             CV                S
                      KCal/Mol        Cal/Mol-Kelvin    Cal/Mol-Kelvin
 Total                   18.822              8.107             47.689
 Electronic               0.000              0.000              0.000
 Translational            0.889              2.981             35.704
 Rotational               0.592              1.987             10.858
 Vibrational             17.341              3.139              1.126

 Optimization completed.
    -- Stationary point found.

 1\1\GINC-CN506-09-R\Freq\RwB97XD\def2TZVP\C2H2\MINENKY\09-Jul-2021\0\\
 #P Geom=AllCheck Guess=TCheck SCRF=Check GenChk RwB97XD/def2TZVP Freq\
 \The PBEPBE optimization and frequencies\\0,1\C,0.,0.,0.5973210815\C,0
 .,0.,-0.5973210815\H,0.,0.,1.6613360563\H,0.,0.,-1.6613360563\\Version
 =AM64L-G09RevD.01\State=1-SGG\HF=-77.3281632\RMSD=3.356e-10\RMSF=2.752
 e-07\ZeroPoint=0.0272178\Thermal=0.0299946\Dipole=0.,0.,0.\DipoleDeriv
 =-0.2285225,0.,0.,0.,-0.2285225,0.,0.,0.,-0.2091533,-0.2285225,0.,0.,0
 .,-0.2285225,0.,0.,0.,-0.2091533,0.2285225,0.,0.,0.,0.2285225,0.,0.,0.

 Normal termination of Gaussian 09 at Fri Jul  9 19:23:47 2021.
