 Gaussian 09, Revision D.01,
 Gaussian 09:  AM64L-G09RevD.01 24-Apr-2013

 ----------------------------------------------------------------------
 #P wB97XD/def2tzvp opt=(tight) freq integral(Grid=ultrafine) # SCF(Max
 Cycle=380) 5d 7f GFPrint
 ----------------------------------------------------------------------

 ---------------------------------------
 The PBEPBE optimization and frequencies
 ---------------------------------------
 Symbolic Z-matrix:
 Charge =  0 Multiplicity = 1

 SCF Done:  E(RwB97XD) =  -158.466941397     A.U. after   12 cycles
 SCF Done:  E(RwB97XD) =  -158.466959393     A.U. after    8 cycles
 SCF Done:  E(RwB97XD) =  -158.466960226     A.U. after    7 cycles
 SCF Done:  E(RwB97XD) =  -158.466960244     A.U. after    5 cycles
 Optimization completed.
    -- Stationary point found.
 Normal termination of Gaussian 09 at Fri Jul  9 19:32:41 2021.

 ---------------------------------------------------------------------
 #P Geom=AllCheck Guess=TCheck SCRF=Check GenChk RwB97XD/def2TZVP Freq
 ---------------------------------------------------------------------

 Structure from the checkpoint file:  "m1_00_75-28-50_C4H10_wB97XD.chk"
 ---------------------------------------
 The PBEPBE optimization and frequencies
 ---------------------------------------
 Charge =  0 Multiplicity = 1

                         Standard orientation:
 ---------------------------------------------------------------------
 Center     Atomic      Atomic             Coordinates (Angstroms)
 Number     Number       Type             X           Y           Z
 ---------------------------------------------------------------------
      1          6           0        0.000000    0.000000    0.373998
      2          1           0        0.000000    0.000000    1.469452
      3          6           0        0.000000    1.451660   -0.095597
      4          6           0       -1.257174   -0.725830   -0.095597
      5          6           0        1.257174   -0.725830   -0.095597
      6          1           0        0.000000    1.501476   -1.188415
      7          1           0       -0.883444    1.984672    0.262093
      8          1           0        0.883444    1.984672    0.262093
      9          1           0       -1.300316   -0.750738   -1.188415
     10          1           0       -1.277055   -1.757421    0.262093
     11          1           0       -2.160498   -0.227252    0.262093
     12          1           0        1.300316   -0.750738   -1.188415
     13          1           0        2.160498   -0.227252    0.262093
     14          1           0        1.277055   -1.757421    0.262093
 ---------------------------------------------------------------------

 SCF Done:  E(RwB97XD) =  -158.466960244     A.U. after    1 cycles

 The electronic state is 1-A1.
 Alpha  occ. eigenvalues --  -10.28278 -10.26528 -10.26528 -10.26527  -0.90351
 Alpha  occ. eigenvalues --   -0.77812  -0.77812  -0.65148  -0.55231  -0.51761
 Alpha  occ. eigenvalues --   -0.51761  -0.46611  -0.46611  -0.44411  -0.40774
 Alpha  occ. eigenvalues --   -0.40774  -0.40095
 Alpha virt. eigenvalues --    0.10765   0.15464   0.16219   0.16219   0.17744
 Alpha virt. eigenvalues --    0.18238   0.18238   0.21911   0.23064   0.23064
 Alpha virt. eigenvalues --    0.25003   0.25003   0.25078   0.29270   0.29270

 Mulliken charges:
               1
     1  C   -0.024313
     2  H    0.065019
     3  C   -0.341268
     4  C   -0.341268
     5  C   -0.341268
     6  H    0.103373
     7  H    0.112163
     8  H    0.112163
     9  H    0.103373
    10  H    0.112163
    11  H    0.112163
    12  H    0.103373
    13  H    0.112163
    14  H    0.112163
 Sum of Mulliken charges =   0.00000

 Dipole moment (field-independent basis, Debye):
    X=              0.0000    Y=              0.0000    Z=              0.1398  Tot=              0.1398
 Quadrupole moment (field-independent basis, Debye-Ang):
   XX=            -28.8151   YY=            -28.8151   ZZ=            -28.1661
   XY=              0.0000   XZ=              0.0000   YZ=              0.0000

  Exact polarizability:  52.540   0.000  52.536   0.000  -0.003  46.775
 Approx polarizability:  52.032   0.000  52.032   0.000   0.000  52.202

                      1                      2                      3
                     A2                      E                      E
 Frequencies --    212.6112               264.7173               264.7182
 Red. masses --      1.0127                 1.0605                 1.0605
 Frc consts  --      0.0270                 0.0438                 0.0438
 IR Inten    --      0.0000                 0.0187                 0.0182

                      4                      5                      6
                      E                      E                     A1
 Frequencies --    373.2767               373.4159               440.0913
 Red. masses --      2.0667                 2.0668                 1.9179
 Frc consts  --      0.1697                 0.1698                 0.2189
 IR Inten    --      0.0304                 0.0297                 0.1146

                      7                      8                      9
                     A1                      E                      E
 Frequencies --    813.7767               935.9474               936.1191
 Red. masses --      2.7804                 1.1996                 1.2005
 Frc consts  --      1.0848                 0.6192                 0.6198
 IR Inten    --      0.5935                 0.9771                 0.9938

                     10                     11                     12
                     A2                      E                      E
 Frequencies --    965.5358               988.0597               988.1787
 Red. masses --      1.2032                 1.7577                 1.7558
 Frc consts  --      0.6609                 1.0110                 1.0102
 IR Inten    --      0.0001                 0.0255                 0.0255

                     13                     14                     15
                      E                      E                     A1
 Frequencies --   1205.4991              1205.5197              1218.7658
 Red. masses --      1.7283                 1.7291                 1.9292
 Frc consts  --      1.4798                 1.4805                 1.6884
 IR Inten    --      2.3164                 2.3175                 0.1702

                     16                     17                     18
                      E                      E                      E
 Frequencies --   1369.4449              1369.5807              1410.2110
 Red. masses --      1.3751                 1.3744                 1.3046
 Frc consts  --      1.5195                 1.5189                 1.5286
 IR Inten    --      1.4102                 1.3823                10.4900

                     19                     20                     21
                      E                     A1                     A2
 Frequencies --   1410.2142              1434.4821              1485.4082
 Red. masses --      1.3046                 1.2355                 1.0473
 Frc consts  --      1.5287                 1.4979                 1.3614
 IR Inten    --     10.4933                 4.4860                 0.0000

                     22                     23                     24
                      E                      E                      E
 Frequencies --   1491.7486              1491.7585              1510.6661
 Red. masses --      1.0388                 1.0388                 1.0639
 Frc consts  --      1.3620                 1.3620                 1.4305
 IR Inten    --      0.3342                 0.3283                 5.2570

                     25                     26                     27
                      E                     A1                     A1
 Frequencies --   1510.6774              1518.6816              3034.2035
 Red. masses --      1.0639                 1.0448                 1.0812
 Frc consts  --      1.4305                 1.4198                 5.8646
 IR Inten    --      5.2608                21.5241                 6.4797

                     28                     29                     30
                      E                      E                     A1
 Frequencies --   3036.5948              3036.5949              3042.1010
 Red. masses --      1.0360                 1.0360                 1.0393
 Frc consts  --      5.6284                 5.6284                 5.6666
 IR Inten    --     34.0597                34.0903                20.6875

                     31                     32                     33
                      E                      E                     A1
 Frequencies --   3106.0715              3106.0718              3114.9136
 Red. masses --      1.1011                 1.1011                 1.0997
 Frc consts  --      6.2586                 6.2587                 6.2869
 IR Inten    --      9.3597                 9.3508                94.8060

                     34                     35                     36
                     A2                      E                      E
 Frequencies --   3117.3133              3121.0762              3121.0764
 Red. masses --      1.1031                 1.1020                 1.1020
 Frc consts  --      6.3159                 6.3245                 6.3245
 IR Inten    --      0.0000                51.0207                50.9382

 - Thermochemistry -
 -------------------
 Temperature   298.150 Kelvin.  Pressure   1.00000 Atm.
 Atom     1 has atomic number  6 and mass  12.00000

 Molecular mass:    58.07825 amu.
 Principal axes and moments of inertia in atomic units:
                           1         2         3
     Eigenvalues --   230.23847 230.23847 397.16508
           X           -0.24987   0.96828   0.00000
           Y            0.96828   0.24987   0.00000
           Z            0.00000   0.00000   1.00000
 This molecule is an oblate symmetric top.
 Rotational symmetry number  3.
 Rotational temperatures (Kelvin)      0.37619     0.37619     0.21808
 Rotational constants (GHZ):           7.83857     7.83857     4.54406
 Zero-point vibrational energy     347067.3 (Joules/Mol)
                                   82.95108 (Kcal/Mol)
 Warning -- explicit consideration of   6 degrees of freedom as
           vibrations may cause significant error
 Vibrational temperatures:    305.90   380.87   380.87   537.06   537.26
          (Kelvin)            633.19  1170.84  1346.62  1346.86  1389.19
                             1421.60  1421.77  1734.44  1734.47  1753.53
                             1970.32  1970.52  2028.98  2028.98  2063.90
                             2137.17  2146.29  2146.31  2173.51  2173.53
                             2185.04  4365.54  4368.98  4368.98  4376.90
                             4468.94  4468.94  4481.66  4485.11  4490.53
                             4490.53

 Zero-point correction=                           0.132191 (Hartree/Particle)
 Thermal correction to Energy=                    0.137845
 Thermal correction to Enthalpy=                  0.138789
 Thermal correction to Gibbs Free Energy=         0.105656
 Sum of electronic and zero-point Energies=           -158.334769
 Sum of electronic and thermal Energies=              -158.329115
 Sum of electronic and thermal Enthalpies=            -158.328171
 Sum of electronic and thermal Free Energies=         -158.361305

                     E (Thermal)             CV                S
                      KCal/Mol        Cal/Mol-Kelvin    Cal/Mol-Kelvin
 Total                   86.499             20.004             69.735
 Electronic               0.000              0.000              0.000
 Translational            0.889              2.981             38.098
 Rotational               0.889              2.981             22.374
 Vibrational             84.722             14.042              9.263
 Vibration     1          0.644              1.822              2.021
 Vibration     2          0.671              1.738              1.630
 Vibration     3          0.671              1.738              1.630
 Vibration     4          0.745              1.527              1.066
 Vibration     5          0.745              1.527              1.066
 Vibration     6          0.800              1.383              0.826

 Optimization completed.
    -- Stationary point found.
 Normal termination of Gaussian 09 at Fri Jul  9 19:36:49 2021.
