 Gaussian 09, Revision D.01,
 Gaussian 09:  AM64L-G09RevD.01 24-Apr-2013

 ----------------------------------------------------------------------
 #P wB97XD/def2tzvp opt=(tight) freq integral(Grid=ultrafine) # SCF(Max
 Cycle=380) 5d 7f GFPrint
 ----------------------------------------------------------------------

 ---------------------------------------
 The PBEPBE optimization and frequencies
 ---------------------------------------
 Symbolic Z-matrix:
 Charge =  0 Multiplicity = 1

 SCF Done:  E(RwB97XD) =  -308.388717374     A.U. after   14 cycles
 SCF Done:  E(RwB97XD) =  -308.388842091     A.U. after    9 cycles
 SCF Done:  E(RwB97XD) =  -308.388844860     A.U. after    8 cycles
 SCF Done:  E(RwB97XD) =  -308.388844944     A.U. after    8 cycles
 SCF Done:  E(RwB97XD) =  -308.388844939     A.U. after    8 cycles
 SCF Done:  E(RwB97XD) =  -308.388844975     A.U. after    7 cycles
 Optimization completed.
    -- Stationary point found.

 1\1\GINC-CN514-05-R\FOpt\RwB97XD\def2TZVP\C8H6\MINENKY\09-Jul-2021\0\\
 #P wB97XD/def2tzvp opt=(tight) freq integral(Grid=ultrafine) # SCF(Max
 Cycle=380) 5d 7f GFPrint\\The PBEPBE optimization and frequencies\\0,1
 \C,0.0000000704,-0.5851134853,0.\C,1.2044143223,0.1198825503,0.\C,-1.2
 044142353,0.1198824211,0.\C,1.2005739495,1.5038938984,0.\C,-1.20057400
 29,1.5038937822,0.\C,-0.0000000701,2.198862586,0.\H,2.1379885004,-0.42
 71494799,0.\H,-2.1379883637,-0.427149687,0.\H,2.1395289499,2.042577715
 8,0.\H,-2.1395290631,2.0425774833,0.\H,-0.0000001113,3.2813954977,0.\C

 Normal termination of Gaussian 09 at Fri Jul  9 19:25:34 2021.

 ---------------------------------------------------------------------
 #P Geom=AllCheck Guess=TCheck SCRF=Check GenChk RwB97XD/def2TZVP Freq
 ---------------------------------------------------------------------

 Structure from the checkpoint file:  "m1_00_536-74-30_C8H6_wB97XD.chk"
 ---------------------------------------
 The PBEPBE optimization and frequencies
 ---------------------------------------
 Charge =  0 Multiplicity = 1

                         Standard orientation:
 ---------------------------------------------------------------------
 Center     Atomic      Atomic             Coordinates (Angstroms)
 Number     Number       Type             X           Y           Z
 ---------------------------------------------------------------------
      1          6           0        0.000000    0.585439    0.000000
      2          6           0       -1.204414   -0.119557    0.000000
      3          6           0        1.204414   -0.119557    0.000000
      4          6           0       -1.200574   -1.503568    0.000000
      5          6           0        1.200574   -1.503568    0.000000
      6          6           0        0.000000   -2.198537    0.000000
      7          1           0       -2.137988    0.427475    0.000000
      8          1           0        2.137988    0.427475    0.000000
      9          1           0       -2.139529   -2.042252    0.000000
     10          1           0        2.139529   -2.042252    0.000000
     11          1           0        0.000000   -3.281070    0.000000
     12          6           0        0.000000    2.016215    0.000000
     13          6           0        0.000000    3.215145    0.000000
     14          1           0       -0.000001    4.278539    0.000000
 ---------------------------------------------------------------------

 SCF Done:  E(RwB97XD) =  -308.388844975     A.U. after    1 cycles

 The electronic state is 1-A'.
 Alpha  occ. eigenvalues --  -10.31952 -10.29858 -10.29855 -10.29678 -10.29589
 Alpha  occ. eigenvalues --  -10.29569 -10.29246 -10.28225  -0.97632  -0.89030
 Alpha  occ. eigenvalues --   -0.85835  -0.83098  -0.72519  -0.71151  -0.64726
 Alpha  occ. eigenvalues --   -0.60948  -0.57016  -0.55503  -0.52807  -0.51745
 Alpha  occ. eigenvalues --   -0.48236  -0.44759  -0.43900  -0.40215  -0.36649
 Alpha  occ. eigenvalues --   -0.34299  -0.31640
 Alpha virt. eigenvalues --    0.02531   0.04984   0.11296   0.12261   0.14838
 Alpha virt. eigenvalues --    0.14904   0.15458   0.16081   0.18251   0.18964
 Alpha virt. eigenvalues --    0.19892   0.21792   0.22747   0.26958   0.26981

 Mulliken charges:
               1
     1  C    0.029907
     2  C   -0.197324
     3  C   -0.197324
     4  C   -0.134069
     5  C   -0.134070
     6  C   -0.093037
     7  H    0.131241
     8  H    0.131241
     9  H    0.122501
    10  H    0.122501
    11  H    0.124026
    12  C   -0.018755
    13  C   -0.083265
    14  H    0.196426
 Sum of Mulliken charges =   0.00000

 Dipole moment (field-independent basis, Debye):
    X=              0.0000    Y=             -0.7359    Z=              0.0000  Tot=              0.7359
 Quadrupole moment (field-independent basis, Debye-Ang):
   XX=            -42.0669   YY=            -38.1118   ZZ=            -50.7455
   XY=              0.0000   XZ=              0.0000   YZ=              0.0000

  Exact polarizability:  85.324   0.000 135.470   0.000   0.000  48.094
 Approx polarizability: 101.100   0.000 144.840   0.000   0.000  58.437

                      1                      2                      3
                     A"                     A'                     A"
 Frequencies --    143.4821               162.0772               374.1606
 Red. masses --      3.9637                 3.7530                 3.9402
 Frc consts  --      0.0481                 0.0581                 0.3250
 IR Inten    --      2.1052                 1.4568                 4.9184

                      4                      5                      6
                     A"                     A'                     A'
 Frequencies --    415.5461               476.1527               546.3595
 Red. masses --      2.9011                 7.0549                 5.3431
 Frc consts  --      0.2952                 0.9424                 0.9397
 IR Inten    --      0.0000                 0.2803                 6.5946

                      7                      8                      9
                     A"                     A'                     A"
 Frequencies --    563.4845               642.1885               677.3018
 Red. masses --      3.2280                 6.0082                 1.3139
 Frc consts  --      0.6039                 1.4599                 0.3551
 IR Inten    --      3.1395                 0.7548                53.6018

                     10                     11                     12
                     A'                     A"                     A'
 Frequencies --    711.3617               716.2865               783.3647
 Red. masses --      1.3206                 1.8516                 5.7095
 Frc consts  --      0.3937                 0.5597                 2.0643
 IR Inten    --     40.7798                33.6855                 2.6735

                     13                     14                     15
                     A"                     A"                     A"
 Frequencies --    791.2594               873.4633               957.0033
 Red. masses --      1.8224                 1.2480                 1.4330
 Frc consts  --      0.6722                 0.5610                 0.7733
 IR Inten    --     47.0607                 0.0000                 4.2385

                     16                     17                     18
                     A"                     A"                     A'
 Frequencies --    999.6222              1012.9930              1027.9407
 Red. masses --      1.3679                 1.2839                 6.2438
 Frc consts  --      0.8054                 0.7762                 3.8872
 IR Inten    --      0.0000                 0.1173                 0.0520

                     19                     20                     21
                     A'                     A'                     A'
 Frequencies --   1062.8750              1113.9773              1190.3189
 Red. masses --      2.1661                 1.5340                 1.1514
 Frc consts  --      1.4418                 1.1216                 0.9612
 IR Inten    --      4.4492                 5.5101                 0.1202

                     22                     23                     24
                     A'                     A'                     A'
 Frequencies --   1211.5461              1234.8147              1318.8052
 Red. masses --      1.1444                 3.4615                 4.1268
 Frc consts  --      0.9897                 3.1097                 4.2288
 IR Inten    --      0.0068                 0.8280                 0.7053

                     25                     26                     27
                     A'                     A'                     A'
 Frequencies --   1361.1230              1492.3756              1542.1385
 Red. masses --      1.4649                 2.2470                 2.2997
 Frc consts  --      1.5990                 2.9486                 3.2223
 IR Inten    --      0.3259                 5.4792                16.3992

                     28                     29                     30
                     A'                     A'                     A'
 Frequencies --   1648.2374              1678.2409              2244.9040
 Red. masses --      5.6561                 5.7785                 5.9810
 Frc consts  --      9.0533                 9.5890                17.7591
 IR Inten    --      1.3325                 2.0191                 8.4686

                     31                     32                     33
                     A'                     A'                     A'
 Frequencies --   3196.2863              3205.7921              3214.6321
 Red. masses --      1.0857                 1.0889                 1.0926
 Frc consts  --      6.5352                 6.5936                 6.6524
 IR Inten    --      0.1314                 2.7415                10.7051

                     34                     35                     36
                     A'                     A'                     A'
 Frequencies --   3222.5793              3227.4320              3479.6771
 Red. masses --      1.0954                 1.0987                 1.1629
 Frc consts  --      6.7023                 6.7427                 8.2963
 IR Inten    --     13.3247                 4.5633                92.0869

 - Thermochemistry -
 -------------------
 Temperature   298.150 Kelvin.  Pressure   1.00000 Atm.
 Atom     1 has atomic number  6 and mass  12.00000

 Molecular mass:   102.04695 amu.
 Principal axes and moments of inertia in atomic units:
                           1         2         3
     Eigenvalues --   313.711381169.770881483.48226
           X            0.00000   1.00000   0.00000
           Y            1.00000   0.00000   0.00000
           Z            0.00000   0.00000   1.00000
 This molecule is an asymmetric top.
 Rotational symmetry number  1.
 Rotational temperatures (Kelvin)      0.27609     0.07404     0.05839
 Rotational constants (GHZ):           5.75287     1.54282     1.21656
 Zero-point vibrational energy     290212.9 (Joules/Mol)
                                   69.36254 (Kcal/Mol)
 Warning -- explicit consideration of   7 degrees of freedom as
           vibrations may cause significant error
 Vibrational temperatures:    206.44   233.19   538.33   597.88   685.08
          (Kelvin)            786.09   810.73   923.96   974.48  1023.49
                             1030.58  1127.09  1138.44  1256.72  1376.91
                             1438.23  1457.47  1478.98  1529.24  1602.76
                             1712.60  1743.14  1776.62  1897.46  1958.35
                             2147.19  2218.79  2371.44  2414.61  3229.91
                             4598.74  4612.41  4625.13  4636.57  4643.55
                             5006.47

 Zero-point correction=                           0.110536 (Hartree/Particle)
 Thermal correction to Energy=                    0.116873
 Thermal correction to Enthalpy=                  0.117817
 Thermal correction to Gibbs Free Energy=         0.080184
 Sum of electronic and zero-point Energies=           -308.278309
 Sum of electronic and thermal Energies=              -308.271972
 Sum of electronic and thermal Enthalpies=            -308.271028
 Sum of electronic and thermal Free Energies=         -308.308661

                     E (Thermal)             CV                S
                      KCal/Mol        Cal/Mol-Kelvin    Cal/Mol-Kelvin
 Total                   73.339             24.766             79.205
 Electronic               0.000              0.000              0.000
 Translational            0.889              2.981             39.778
 Rotational               0.889              2.981             27.789
 Vibrational             71.561             18.804             11.637
 Vibration     1          0.616              1.910              2.757
 Vibration     2          0.622              1.889              2.525
 Vibration     3          0.745              1.525              1.063
 Vibration     4          0.779              1.436              0.907
 Vibration     5          0.833              1.303              0.721
 Vibration     6          0.902              1.148              0.552
 Vibration     7          0.919              1.110              0.517

 Optimization completed.
    -- Stationary point found.

 1\1\GINC-CN514-05-R\Freq\RwB97XD\def2TZVP\C8H6\MINENKY\09-Jul-2021\0\\
 #P Geom=AllCheck Guess=TCheck SCRF=Check GenChk RwB97XD/def2TZVP Freq\
 \The PBEPBE optimization and frequencies\\0,1\C,0.0000000704,-0.585113
 4853,0.\C,1.2044143223,0.1198825503,0.\C,-1.2044142353,0.1198824211,0.
 \C,1.2005739495,1.5038938984,0.\C,-1.2005740029,1.5038937822,0.\C,-0.0
 000000701,2.198862586,0.\H,2.1379885004,-0.4271494799,0.\H,-2.13798836
 37,-0.427149687,0.\H,2.1395289499,2.0425777158,0.\H,-2.1395290631,2.04
 25774833,0.\H,-0.0000001113,3.2813954977,0.\C,0.0000001566,-2.01588925

 Normal termination of Gaussian 09 at Fri Jul  9 19:31:21 2021.
