 Gaussian 09, Revision D.01,
 Gaussian 09:  AM64L-G09RevD.01 24-Apr-2013

 ----------------------------------------------------------------------
 #P wB97XD/def2tzvp opt=(tight) freq integral(Grid=ultrafine) # SCF(Max
 Cycle=380) 5d 7f GFPrint
 ----------------------------------------------------------------------

 ---------------------------------------
 The PBEPBE optimization and frequencies
 ---------------------------------------
 Symbolic Z-matrix:
 Charge =  0 Multiplicity = 1

 SCF Done:  E(RwB97XD) =  -464.526465488     A.U. after   16 cycles
 SCF Done:  E(RwB97XD) =  -464.526634344     A.U. after   14 cycles
 SCF Done:  E(RwB97XD) =  -464.526643257     A.U. after    8 cycles
 SCF Done:  E(RwB97XD) =  -464.526644362     A.U. after    7 cycles
 SCF Done:  E(RwB97XD) =  -464.526644372     A.U. after    4 cycles
 Optimization completed.
    -- Stationary point found.
 Normal termination of Gaussian 09 at Fri Jul  9 19:39:21 2021.

 ---------------------------------------------------------------------
 #P Geom=AllCheck Guess=TCheck SCRF=Check GenChk RwB97XD/def2TZVP Freq
 ---------------------------------------------------------------------

 Structure from the checkpoint file:  "m1_00_581-42-0-C12H12_wB97XD.chk"
 ---------------------------------------
 The PBEPBE optimization and frequencies
 ---------------------------------------
 Charge =  0 Multiplicity = 1

                         Standard orientation:
 ---------------------------------------------------------------------
 Center     Atomic      Atomic             Coordinates (Angstroms)
 Number     Number       Type             X           Y           Z
 ---------------------------------------------------------------------
      1          6           0        2.537319    0.079044    0.000000
      2          6           0        3.994922    0.441922    0.000000
      3          6           0        1.554973    1.030136    0.000000
      4          6           0        2.156495   -1.285305    0.000000
      5          6           0        0.183472    0.682596    0.000000
      6          6           0        0.844466   -1.655060    0.000000
      7          6           0       -0.183472   -0.682596    0.000000
      8          6           0       -0.844466    1.655060    0.000000
      9          6           0       -1.554973   -1.030136    0.000000
     10          6           0       -2.156495    1.285305    0.000000
     11          6           0       -2.537319   -0.079044    0.000000
     12          6           0       -3.994922   -0.441922    0.000000
     13          1           0        4.498727    0.034490    0.879568
     14          1           0        4.498724    0.034498   -0.879572
     15          1           0        4.135853    1.522582    0.000004
     16          1           0        1.821175    2.082023    0.000001
     17          1           0        2.930108   -2.045133    0.000000
     18          1           0        0.572717   -2.704413   -0.000001
     19          1           0       -0.572717    2.704413    0.000001
     20          1           0       -1.821175   -2.082023   -0.000001
     21          1           0       -2.930108    2.045133    0.000000
     22          1           0       -4.498724   -0.034498    0.879573
     23          1           0       -4.498727   -0.034490   -0.879567
     24          1           0       -4.135853   -1.522582   -0.000005
 ---------------------------------------------------------------------

 SCF Done:  E(RwB97XD) =  -464.526644372     A.U. after    1 cycles

 The electronic state is 1-A.
 Alpha  occ. eigenvalues --  -10.29337 -10.29336 -10.29107 -10.29060 -10.28479
 Alpha  occ. eigenvalues --  -10.28478 -10.28252 -10.28252 -10.28070 -10.28069
 Alpha  occ. eigenvalues --  -10.27871 -10.27871  -0.97949  -0.93435  -0.87556
 Alpha  occ. eigenvalues --   -0.87399  -0.82301  -0.81094  -0.75959  -0.71584
 Alpha  occ. eigenvalues --   -0.69125  -0.67484  -0.59758  -0.59570  -0.56986
 Alpha  occ. eigenvalues --   -0.53253  -0.52055  -0.51660  -0.51326  -0.50702
 Alpha  occ. eigenvalues --   -0.49903  -0.47633  -0.46841  -0.46766  -0.46163
 Alpha  occ. eigenvalues --   -0.43789  -0.41439  -0.40563  -0.40003  -0.36413
 Alpha  occ. eigenvalues --   -0.30881  -0.28525
 Alpha virt. eigenvalues --    0.02650   0.05075   0.09220   0.12256   0.12289
 Alpha virt. eigenvalues --    0.13921   0.14464   0.15350   0.16540   0.16752
 Alpha virt. eigenvalues --    0.18495   0.18834   0.20147   0.20911   0.21086

 Mulliken charges:
               1
     1  C    0.204225
     2  C   -0.366423
     3  C   -0.323090
     4  C   -0.195642
     5  C    0.160916
     6  C   -0.172466
     7  C    0.160916
     8  C   -0.172466
     9  C   -0.323090
    10  C   -0.195642
    11  C    0.204225
    12  C   -0.366423
    13  H    0.127326
    14  H    0.127326
    15  H    0.119167
    16  H    0.102298
    17  H    0.110847
    18  H    0.105517
    19  H    0.105517
    20  H    0.102298
    21  H    0.110847
    22  H    0.127326
    23  H    0.127326
    24  H    0.119167
 Sum of Mulliken charges =   0.00000

 Dipole moment (field-independent basis, Debye):
    X=              0.0000    Y=              0.0000    Z=              0.0000  Tot=              0.0000
 Quadrupole moment (field-independent basis, Debye-Ang):
   XX=            -61.8750   YY=            -64.9740   ZZ=            -76.0046
   XY=              0.0377   XZ=              0.0000   YZ=              0.0000

  Exact polarizability: 212.004  -6.550 137.293   0.000   0.000  77.632
 Approx polarizability: 210.439  -9.086 170.787   0.000   0.000  98.827

                      1                      2                      3
                      A                      A                      A
 Frequencies --     81.5070               101.2387               106.2679
 Red. masses --      2.4890                 1.0662                 1.1497
 Frc consts  --      0.0097                 0.0064                 0.0076
 IR Inten    --      1.6680                 0.0000                 0.0036

                      4                      5                      6
                      A                      A                      A
 Frequencies --    182.7808               207.9787               224.8189
 Red. masses --      3.6181                 3.0856                 3.0157
 Frc consts  --      0.0712                 0.0786                 0.0898
 IR Inten    --      0.7710                 0.0000                 1.0618

                      7                      8                      9
                      A                      A                      A
 Frequencies --    327.8178               345.9319               409.9703
 Red. masses --      2.8374                 3.5309                 3.1279
 Frc consts  --      0.1797                 0.2490                 0.3097
 IR Inten    --      0.0000                 4.2979                 0.0000

                     10                     11                     12
                      A                      A                      A
 Frequencies --    417.5001               450.3638               498.7173
 Red. masses --      4.5842                 3.1154                 2.6005
 Frc consts  --      0.4708                 0.3723                 0.3811
 IR Inten    --      0.0000                 2.4463                15.0031

                     13                     14                     15
                      A                      A                      A
 Frequencies --    541.4311               545.0612               596.0708
 Red. masses --      6.5447                 2.7587                 4.8631
 Frc consts  --      1.1304                 0.4829                 1.0180
 IR Inten    --      0.0000                 0.0000                 1.4891

                     16                     17                     18
                      A                      A                      A
 Frequencies --    662.9025               691.1870               778.2958
 Red. masses --      3.0899                 5.7824                 5.8070
 Frc consts  --      0.8000                 1.6276                 2.0725
 IR Inten    --      7.0669                 1.2326                 0.0000

                     19                     20                     21
                      A                      A                      A
 Frequencies --    795.5252               823.9939               842.3902
 Red. masses --      2.1452                 1.5528                 1.3374
 Frc consts  --      0.7999                 0.6212                 0.5592
 IR Inten    --      0.0000                 0.0000                38.3436

                     22                     23                     24
                      A                      A                      A
 Frequencies --    855.1195               909.9548               925.1372
 Red. masses --      3.6923                 1.3410                 1.6797
 Frc consts  --      1.5907                 0.6542                 0.8470
 IR Inten    --      0.0000                27.4448                 0.0000

                     25                     26                     27
                      A                      A                      A
 Frequencies --    941.1172               985.5737               991.0801
 Red. masses --      3.2860                 1.2958                 1.3385
 Frc consts  --      1.7147                 0.7416                 0.7746
 IR Inten    --      1.0317                 0.0000                 1.5583

                     28                     29                     30
                      A                      A                      A
 Frequencies --    991.1142              1027.7508              1035.6832
 Red. masses --      2.7644                 1.5677                 1.5991
 Frc consts  --      1.5999                 0.9756                 1.0106
 IR Inten    --      0.0000                 0.0000                13.8281

                     31                     32                     33
                      A                      A                      A
 Frequencies --   1073.3634              1073.4907              1163.4282
 Red. masses --      1.5519                 1.5489                 1.6288
 Frc consts  --      1.0534                 1.0516                 1.2990
 IR Inten    --      6.3362                 0.0000                 4.1438

                     34                     35                     36
                      A                      A                      A
 Frequencies --   1189.7892              1192.0180              1211.6427
 Red. masses --      1.3881                 1.5870                 1.4025
 Frc consts  --      1.1578                 1.3286                 1.2131
 IR Inten    --      0.0000                 2.2809                 0.0000

                     37                     38                     39
                      A                      A                      A
 Frequencies --   1246.2478              1295.2283              1305.7095
 Red. masses --      3.7228                 1.6050                 1.8331
 Frc consts  --      3.4066                 1.5864                 1.8413
 IR Inten    --      1.4625                 0.0000                 4.5828

                     40                     41                     42
                      A                      A                      A
 Frequencies --   1385.0688              1419.5175              1421.3772
 Red. masses --      1.8526                 1.4571                 1.3244
 Frc consts  --      2.0940                 1.7298                 1.5765
 IR Inten    --      2.2819                 1.2299                 0.0000

                     43                     44                     45
                      A                      A                      A
 Frequencies --   1428.2390              1428.8636              1456.2520
 Red. masses --      2.7386                 3.2577                 3.4814
 Frc consts  --      3.2914                 3.9187                 4.3499
 IR Inten    --      5.8839                 0.0000                 0.0000

                     46                     47                     48
                      A                      A                      A
 Frequencies --   1489.1008              1489.1361              1493.2475
 Red. masses --      1.0425                 1.0425                 1.1112
 Frc consts  --      1.3620                 1.3620                 1.4598
 IR Inten    --     14.5546                 0.0000                18.0148

                     49                     50                     51
                      A                      A                      A
 Frequencies --   1506.1504              1540.1014              1564.1899
 Red. masses --      1.1881                 2.8798                 3.2621
 Frc consts  --      1.5880                 4.0245                 4.7025
 IR Inten    --      0.0000                 0.0000                15.3630

                     52                     53                     54
                      A                      A                      A
 Frequencies --   1650.2322              1690.5049              1720.4303
 Red. masses --      6.9242                 5.9171                 6.6456
 Frc consts  --     11.1100                 9.9631                11.5893
 IR Inten    --      0.0000                30.0536                 0.0000

                     55                     56                     57
                      A                      A                      A
 Frequencies --   3049.8612              3050.1102              3110.8602
 Red. masses --      1.0370                 1.0370                 1.1008
 Frc consts  --      5.6831                 5.6840                 6.2767
 IR Inten    --     71.1844                 0.0000                 0.0000

                     58                     59                     60
                      A                      A                      A
 Frequencies --   3110.8761              3139.0975              3139.0987
 Red. masses --      1.1008                 1.1017                 1.1017
 Frc consts  --      6.2766                 6.3963                 6.3963
 IR Inten    --     28.2625                 0.0001                28.4884

                     61                     62                     63
                      A                      A                      A
 Frequencies --   3178.5210              3179.0002              3180.9946
 Red. masses --      1.0904                 1.0901                 1.0870
 Frc consts  --      6.4907                 6.4910                 6.4806
 IR Inten    --     22.8536                 0.0000                16.8720

                     64                     65                     66
                      A                      A                      A
 Frequencies --   3181.3436              3200.1817              3200.8312
 Red. masses --      1.0868                 1.0962                 1.0957
 Frc consts  --      6.4807                 6.6142                 6.6143
 IR Inten    --      0.0000                38.6485                 0.0000

 - Thermochemistry -
 -------------------
 Temperature   298.150 Kelvin.  Pressure   1.00000 Atm.
 Atom     1 has atomic number  6 and mass  12.00000

 Molecular mass:   156.09390 amu.
 Principal axes and moments of inertia in atomic units:
                           1         2         3
     Eigenvalues --   666.135323103.204623747.06515
           X            0.99997   0.00831   0.00000
           Y           -0.00831   0.99997   0.00000
           Z            0.00000   0.00000   1.00000
 This molecule is an asymmetric top.
 Rotational symmetry number  1.
 Warning -- assumption of classical behavior for rotation
           may cause significant error
 Rotational temperatures (Kelvin)      0.13002     0.02791     0.02312
 Rotational constants (GHZ):           2.70927     0.58157     0.48164
 Zero-point vibrational energy     535020.2 (Joules/Mol)
                                  127.87289 (Kcal/Mol)
 Warning -- explicit consideration of  15 degrees of freedom as
           vibrations may cause significant error
 Vibrational temperatures:    117.27   145.66   152.90   262.98   299.23
          (Kelvin)            323.46   471.66   497.72   589.86   600.69
                              647.97   717.54   779.00   784.22   857.61
                              953.77   994.46  1119.79  1144.58  1185.54
                             1212.01  1230.32  1309.22  1331.06  1354.06
                             1418.02  1425.94  1425.99  1478.70  1490.12
                             1544.33  1544.51  1673.91  1711.84  1715.05
                             1743.28  1793.07  1863.54  1878.62  1992.80
                             2042.37  2045.04  2054.91  2055.81  2095.22
                             2142.48  2142.53  2148.45  2167.01  2215.86
                             2250.52  2374.31  2432.26  2475.31  4388.06
                             4388.42  4475.83  4475.85  4516.46  4516.46
                             4573.18  4573.87  4576.74  4577.24  4604.34
                             4605.28

 Zero-point correction=                           0.203778 (Hartree/Particle)
 Thermal correction to Energy=                    0.214057
 Thermal correction to Enthalpy=                  0.215001
 Thermal correction to Gibbs Free Energy=         0.168085
 Sum of electronic and zero-point Energies=           -464.322866
 Sum of electronic and thermal Energies=              -464.312588
 Sum of electronic and thermal Enthalpies=            -464.311644
 Sum of electronic and thermal Free Energies=         -464.358560

                     E (Thermal)             CV                S
                      KCal/Mol        Cal/Mol-Kelvin    Cal/Mol-Kelvin
 Total                  134.323             40.528             98.743
 Electronic               0.000              0.000              0.000
 Translational            0.889              2.981             41.045
 Rotational               0.889              2.981             30.428
 Vibrational            132.545             34.567             27.270
 Vibration     1          0.600              1.962              3.854
 Vibration     2          0.604              1.948              3.430
 Vibration     3          0.605              1.944              3.336
 Vibration     4          0.630              1.863              2.300
 Vibration     5          0.641              1.828              2.061
 Vibration     6          0.649              1.803              1.920
 Vibration     7          0.711              1.620              1.271
 Vibration     8          0.724              1.584              1.185
 Vibration     9          0.774              1.449              0.927
 Vibration    10          0.781              1.432              0.901
 Vibration    11          0.809              1.360              0.795
 Vibration    12          0.854              1.253              0.661
 Vibration    13          0.897              1.158              0.562
 Vibration    14          0.900              1.151              0.555
 Vibration    15          0.954              1.040              0.456

 Optimization completed.
    -- Stationary point found.
 Normal termination of Gaussian 09 at Fri Jul  9 20:16:50 2021.
