 Gaussian 09, Revision D.01,
 Gaussian 09:  AM64L-G09RevD.01 24-Apr-2013

 ----------------------------------------------------------------------
 #P wB97XD/def2tzvp opt=(tight) freq integral(Grid=ultrafine) # SCF(Max
 Cycle=380) 5d 7f GFPrint
 ----------------------------------------------------------------------

 ---------------------------------------
 The PBEPBE optimization and frequencies
 ---------------------------------------
 Symbolic Z-matrix:
 Charge =  0 Multiplicity = 1

 SCF Done:  E(RwB97XD) =  -1229.12606783     A.U. after   15 cycles
 SCF Done:  E(RwB97XD) =  -1229.13095700     A.U. after   13 cycles
 SCF Done:  E(RwB97XD) =  -1229.13125146     A.U. after   12 cycles
 SCF Done:  E(RwB97XD) =  -1229.13127352     A.U. after    9 cycles
 SCF Done:  E(RwB97XD) =  -1229.13127518     A.U. after    8 cycles
 SCF Done:  E(RwB97XD) =  -1229.13127525     A.U. after    5 cycles
 SCF Done:  E(RwB97XD) =  -1229.13127523     A.U. after    3 cycles
 Optimization completed.
    -- Stationary point found.
 Normal termination of Gaussian 09 at Sat Jul 27 17:16:44 2019.

 ---------------------------------------------------------------------
 #P Geom=AllCheck Guess=TCheck SCRF=Check GenChk RwB97XD/def2TZVP Freq
 ---------------------------------------------------------------------

 Structure from the checkpoint file:  "m1_00_120835-97-4-C32H16_wB97XD.chk"
 ---------------------------------------
 The PBEPBE optimization and frequencies
 ---------------------------------------
 Charge =  0 Multiplicity = 1

                         Standard orientation:
 ---------------------------------------------------------------------
 Center     Atomic      Atomic             Coordinates (Angstroms)
 Number     Number       Type             X           Y           Z
 ---------------------------------------------------------------------
      1          6           0       -4.865109    0.125042    0.000000
      2          6           0       -3.760298    0.891127    0.000000
      3          6           0       -2.436413    0.326741    0.000000
      4          6           0        0.125948   -0.904947    0.000000
      5          6           0        1.421762   -1.465916    0.000000
      6          6           0        2.556814   -0.698663    0.000000
      7          6           0        3.874715   -1.283681    0.000000
      8          6           0        4.978628   -0.519141    0.000000
      9          6           0        4.894836    0.920950    0.000000
     10          6           0        6.020383    1.724802    0.000000
     11          6           0        5.904894    3.116765    0.000000
     12          6           0        4.669398    3.715477    0.000000
     13          6           0        3.609473    1.526195    0.000000
     14          6           0        3.496006    2.937827    0.000000
     15          6           0        2.206653    3.514166    0.000000
     16          6           0        2.442762    0.724343    0.000000
     17          6           0        1.171291    1.315327    0.000000
     18          6           0        1.072367    2.744419    0.000000
     19          6           0       -0.240651    3.327040    0.000000
     20          6           0       -1.344610    2.563624    0.000000
     21          6           0       -1.284448    1.122170    0.000000
     22          6           0        0.000000    0.509172    0.000000
     23          6           0       -4.780718   -1.306002    0.000000
     24          6           0       -5.915891   -2.108098    0.000000
     25          6           0       -5.807993   -3.491469    0.000000
     26          6           0       -4.564544   -4.088639    0.000000
     27          6           0       -3.497769   -1.903967    0.000000
     28          6           0       -3.400479   -3.313898    0.000000
     29          6           0       -2.102659   -3.904089    0.000000
     30          6           0       -0.989975   -3.140444    0.000000
     31          6           0       -1.050959   -1.711599    0.000000
     32          6           0       -2.317069   -1.095388    0.000000
     33          1           0       -5.846796    0.583706    0.000000
     34          1           0       -3.880773    1.963797    0.000000
     35          1           0        1.545463   -2.539376    0.000000
     36          1           0        3.953475   -2.364484    0.000000
     37          1           0        5.962351   -0.973560    0.000000
     38          1           0        7.001363    1.264688    0.000000
     39          1           0        6.799642    3.726350    0.000000
     40          1           0        4.583840    4.795514    0.000000
     41          1           0        2.116629    4.594883    0.000000
     42          1           0       -0.323119    4.407391    0.000000
     43          1           0       -2.306190    3.054055    0.000000
     44          1           0       -6.892577   -1.638919    0.000000
     45          1           0       -6.701884   -4.102131    0.000000
     46          1           0       -4.476682   -5.168551    0.000000
     47          1           0       -2.022997   -4.984640    0.000000
     48          1           0       -0.029814   -3.634219    0.000000
 ---------------------------------------------------------------------

 SCF Done:  E(RwB97XD) =  -1229.13127523     A.U. after    1 cycles

 The electronic state is 1-A'.
 Alpha  occ. eigenvalues --  -10.30621 -10.30603 -10.30555 -10.30542 -10.30456
 Alpha  occ. eigenvalues --  -10.30445 -10.30319 -10.30253 -10.30218 -10.30206
 Alpha  occ. eigenvalues --  -10.30181 -10.30154 -10.30153 -10.30061 -10.30047
 Alpha  occ. eigenvalues --  -10.30045 -10.29449 -10.29363 -10.29361 -10.29308
 Alpha  occ. eigenvalues --  -10.29293 -10.29273 -10.29264 -10.29253 -10.29223
 Alpha  occ. eigenvalues --  -10.29223 -10.29211 -10.29190 -10.29151 -10.29124
 Alpha  occ. eigenvalues --  -10.29122 -10.29093  -1.01514  -1.00089  -0.97708
 Alpha  occ. eigenvalues --   -0.95737  -0.94699  -0.94007  -0.91403  -0.90968
 Alpha  occ. eigenvalues --   -0.87716  -0.86920  -0.86820  -0.85327  -0.84032
 Alpha  occ. eigenvalues --   -0.83156  -0.82474  -0.79679  -0.75246  -0.74194
 Alpha  occ. eigenvalues --   -0.73844  -0.72827  -0.71764  -0.71034  -0.70773
 Alpha  occ. eigenvalues --   -0.68832  -0.64948  -0.64106  -0.63368  -0.62115
 Alpha  occ. eigenvalues --   -0.61566  -0.59975  -0.59622  -0.59189  -0.58864
 Alpha  occ. eigenvalues --   -0.57292  -0.55338  -0.54908  -0.54122  -0.53839
 Alpha  occ. eigenvalues --   -0.52818  -0.52725  -0.51467  -0.51283  -0.50980
 Alpha  occ. eigenvalues --   -0.50913  -0.50374  -0.49486  -0.48621  -0.48504
 Alpha  occ. eigenvalues --   -0.48038  -0.47966  -0.47825  -0.46515  -0.46197
 Alpha  occ. eigenvalues --   -0.45954  -0.45475  -0.44220  -0.43932  -0.43723
 Alpha  occ. eigenvalues --   -0.42285  -0.41053  -0.40655  -0.40363  -0.39354
 Alpha  occ. eigenvalues --   -0.39006  -0.36546  -0.35223  -0.34527  -0.33567
 Alpha  occ. eigenvalues --   -0.31834  -0.29806  -0.29139  -0.23560
 Alpha virt. eigenvalues --   -0.04143   0.00837   0.01847   0.03070   0.04927
 Alpha virt. eigenvalues --    0.06389   0.06914   0.07755   0.11981   0.12556
 Alpha virt. eigenvalues --    0.12575   0.12605   0.12830   0.13313   0.13954

 Mulliken charges:
               1
     1  C   -0.199507
     2  C   -0.239394
     3  C    0.174580
     4  C    0.221114
     5  C   -0.384643
     6  C    0.201708
     7  C   -0.223450
     8  C   -0.196296
     9  C    0.124942
    10  C   -0.153521
    11  C   -0.085548
    12  C   -0.191288
    13  C   -0.055494
    14  C    0.165118
    15  C   -0.303271
    16  C    0.067119
    17  C    0.041401
    18  C    0.192489
    19  C   -0.213155
    20  C   -0.254105
    21  C    0.174637
    22  C   -0.017024
    23  C    0.138151
    24  C   -0.166630
    25  C   -0.084177
    26  C   -0.175847
    27  C   -0.032448
    28  C    0.136582
    29  C   -0.189079
    30  C   -0.211882
    31  C    0.128490
    32  C   -0.038911
    33  H    0.101586
    34  H    0.091907
    35  H    0.090088
    36  H    0.104082
    37  H    0.104697
    38  H    0.109539
    39  H    0.115382
    40  H    0.109693
    41  H    0.099170
    42  H    0.102398
    43  H    0.089914
    44  H    0.109970
    45  H    0.115783
    46  H    0.110063
    47  H    0.101479
    48  H    0.093588
 Sum of Mulliken charges =   0.00000

 Dipole moment (field-independent basis, Debye):
    X=             -0.0049    Y=             -0.0441    Z=              0.0000  Tot=              0.0444
 Quadrupole moment (field-independent basis, Debye-Ang):
   XX=           -154.5608   YY=           -155.6176   ZZ=           -192.0136
   XY=              0.5811   XZ=              0.0000   YZ=              0.0000

  Exact polarizability: 758.585 206.817 502.916   0.000   0.000 155.856
 Approx polarizability: 772.380 159.562 607.109   0.000   0.000 222.658

                      1                      2                      3
                     A"                     A"                     A"
 Frequencies --     30.8802                36.2501                75.3090
 Red. masses --      5.8056                 4.8623                 5.1702
 Frc consts  --      0.0033                 0.0038                 0.0173
 IR Inten    --      0.1756                 0.0282                 0.0024

                      4                      5                      6
                     A"                     A'                     A"
 Frequencies --    111.7802               146.5191               148.4545
 Red. masses --      4.5817                 5.8809                 4.8597
 Frc consts  --      0.0337                 0.0744                 0.0631
 IR Inten    --      1.0170                 0.7160                 0.0323

                      7                      8                      9
                     A"                     A"                     A"
 Frequencies --    181.5591               186.9153               213.5676
 Red. masses --      4.1044                 4.0626                 3.9654
 Frc consts  --      0.0797                 0.0836                 0.1066
 IR Inten    --      2.5066                 3.6986                 4.0775

                     10                     11                     12
                     A"                     A'                     A"
 Frequencies --    241.2957               248.7455               261.0885
 Red. masses --      4.2887                 7.8588                 4.6557
 Frc consts  --      0.1471                 0.2865                 0.1870
 IR Inten    --      0.2681                 0.1366                 0.9334

                     13                     14                     15
                     A'                     A"                     A"
 Frequencies --    291.4717               295.7919               341.0150
 Red. masses --      6.0636                 4.5034                 4.0685
 Frc consts  --      0.3035                 0.2321                 0.2788
 IR Inten    --      0.8383                 0.5476                 0.2203

                     16                     17                     18
                     A"                     A"                     A'
 Frequencies --    360.3906               393.8464               397.7304
 Red. masses --      4.9841                 3.6452                 5.9210
 Frc consts  --      0.3814                 0.3331                 0.5519
 IR Inten    --      0.0013                 0.0153                 1.1049

                     19                     20                     21
                     A'                     A'                     A'
 Frequencies --    412.6791               443.9450               471.0260
 Red. masses --      6.7808                 7.8115                 4.7664
 Frc consts  --      0.6804                 0.9071                 0.6231
 IR Inten    --      0.6970                 1.1396                 1.4618

                     22                     23                     24
                     A'                     A"                     A'
 Frequencies --    481.0174               492.8086               510.3424
 Red. masses --      5.4272                 3.7067                 7.2449
 Frc consts  --      0.7399                 0.5304                 1.1117
 IR Inten    --      0.2428                 0.4380                 0.3372

                     25                     26                     27
                     A"                     A"                     A'
 Frequencies --    510.6540               529.3263               531.7940
 Red. masses --      3.8046                 3.6720                 6.7988
 Frc consts  --      0.5845                 0.6062                 1.1328
 IR Inten    --      1.1300                 2.1778                 0.8814

                     28                     29                     30
                     A"                     A"                     A'
 Frequencies --    535.5764               544.8883               548.4465
 Red. masses --      3.6321                 3.3445                 5.2665
 Frc consts  --      0.6138                 0.5851                 0.9333
 IR Inten    --      1.9381                 0.0397                 1.9308

                     31                     32                     33
                     A'                     A'                     A"
 Frequencies --    552.1075               556.6159               572.6027
 Red. masses --      6.0895                 6.4786                 3.8573
 Frc consts  --      1.0937                 1.1826                 0.7452
 IR Inten    --      2.0197                 0.4441                 0.3952

                     34                     35                     36
                     A"                     A'                     A'
 Frequencies --    585.7677               595.4799               623.5414
 Red. masses --      3.0737                 6.5446                 6.6244
 Frc consts  --      0.6214                 1.3673                 1.5175
 IR Inten    --      6.1626                 0.0428                 3.7022

                     37                     38                     39
                     A'                     A"                     A"
 Frequencies --    645.7854               660.5343               684.2341
 Red. masses --      6.8758                 4.2338                 3.6707
 Frc consts  --      1.6895                 1.0884                 1.0125
 IR Inten    --      2.0308                 0.5445                 9.3755

                     40                     41                     42
                     A'                     A"                     A"
 Frequencies --    695.0729               711.9325               729.4621
 Red. masses --      6.3674                 2.9719                 2.6082
 Frc consts  --      1.8125                 0.8875                 0.8177
 IR Inten    --      0.3813                 0.0842                29.0294

                     43                     44                     45
                     A'                     A"                     A'
 Frequencies --    731.1158               735.7822               771.7374
 Red. masses --      7.1998                 2.8423                 6.1161
 Frc consts  --      2.2675                 0.9066                 2.1462
 IR Inten    --     14.4132                 5.5848                 4.5061

                     46                     47                     48
                     A'                     A"                     A"
 Frequencies --    779.2414               781.5397               782.6246
 Red. masses --      5.6494                 1.2535                 1.2906
 Frc consts  --      2.0211                 0.4511                 0.4657
 IR Inten    --      4.5018                 0.4995                34.1476

                     49                     50                     51
                     A"                     A'                     A"
 Frequencies --    816.1768               818.5881               819.8305
 Red. masses --      1.7860                 5.9143                 1.5883
 Frc consts  --      0.7010                 2.3350                 0.6290
 IR Inten    --     15.6807                 7.0614                10.2209

                     52                     53                     54
                     A"                     A'                     A"
 Frequencies --    824.8014               844.0878               850.0258
 Red. masses --      2.1449                 5.1328                 2.3555
 Frc consts  --      0.8597                 2.1547                 1.0027
 IR Inten    --     11.4911                 6.0365                20.9868

                     55                     56                     57
                     A'                     A"                     A"
 Frequencies --    850.5381               873.0162               889.3066
 Red. masses --      4.9535                 3.0934                 1.6961
 Frc consts  --      2.1113                 1.3891                 0.7903
 IR Inten    --     10.3098                36.0915                 5.8294

                     58                     59                     60
                     A"                     A'                     A"
 Frequencies --    896.5133               900.0579               915.4472
 Red. masses --      4.8003                 5.6898                 2.1627
 Frc consts  --      2.2732                 2.7157                 1.0679
 IR Inten    --      1.9861                 0.9969                55.9429

                     61                     62                     63
                     A"                     A"                     A"
 Frequencies --    920.7946               930.3130               936.9183
 Red. masses --      3.7625                 1.4152                 1.6009
 Frc consts  --      1.8795                 0.7217                 0.8280
 IR Inten    --      4.0689                 0.0684                 1.3983

                     64                     65                     66
                     A'                     A"                     A"
 Frequencies --    956.4498               970.5002               978.5433
 Red. masses --      6.5762                 1.3293                 1.3026
 Frc consts  --      3.5444                 0.7377                 0.7349
 IR Inten    --      1.0312                 0.1554                 0.0003

                     67                     68                     69
                     A"                     A"                     A"
 Frequencies --    991.6547               993.2535               996.2102
 Red. masses --      1.2927                 1.3092                 1.3057
 Frc consts  --      0.7489                 0.7610                 0.7635
 IR Inten    --      0.0766                 0.5866                 1.1140

                     70                     71                     72
                     A"                     A'                     A'
 Frequencies --   1001.2958              1004.8509              1011.5401
 Red. masses --      1.3102                 5.6757                 6.8348
 Frc consts  --      0.7740                 3.3766                 4.1204
 IR Inten    --      0.0941                 8.0201                 3.0456

                     73                     74                     75
                     A'                     A'                     A'
 Frequencies --   1083.0905              1096.7615              1113.2984
 Red. masses --      3.5819                 3.1201                 2.0119
 Frc consts  --      2.4757                 2.2113                 1.4692
 IR Inten    --      4.5952                 0.2719                10.4359

                     76                     77                     78
                     A'                     A'                     A'
 Frequencies --   1124.3352              1146.1224              1155.8111
 Red. masses --      2.6672                 2.0663                 2.0123
 Frc consts  --      1.9865                 1.5992                 1.5839
 IR Inten    --      0.6378                 1.0881                 0.0351

                     79                     80                     81
                     A'                     A'                     A'
 Frequencies --   1164.7054              1192.6997              1193.7253
 Red. masses --      2.1430                 1.4089                 1.5698
 Frc consts  --      1.7128                 1.1808                 1.3179
 IR Inten    --      1.8269                 2.2889                 1.0812

                     82                     83                     84
                     A'                     A'                     A'
 Frequencies --   1205.9917              1213.9475              1216.1533
 Red. masses --      1.5529                 1.3694                 1.3222
 Frc consts  --      1.3307                 1.1890                 1.1522
 IR Inten    --      0.5841                 3.2959                 7.7549

                     85                     86                     87
                     A'                     A'                     A'
 Frequencies --   1225.2484              1242.5776              1270.7793
 Red. masses --      1.3380                 1.7528                 1.8867
 Frc consts  --      1.1835                 1.5945                 1.7951
 IR Inten    --      3.1479                 6.4537                 0.2761

                     88                     89                     90
                     A'                     A'                     A'
 Frequencies --   1271.8689              1284.1894              1300.0105
 Red. masses --      1.7554                 2.4533                 1.9239
 Frc consts  --      1.6731                 2.3837                 1.9157
 IR Inten    --      1.3035                 0.5500                 4.9224

                     91                     92                     93
                     A'                     A'                     A'
 Frequencies --   1313.2463              1325.9385              1357.5475
 Red. masses --      2.3845                 2.0544                 3.4869
 Frc consts  --      2.4230                 2.1280                 3.7862
 IR Inten    --      8.9903                 1.0339                 3.6266

                     94                     95                     96
                     A'                     A'                     A'
 Frequencies --   1367.9483              1373.2778              1394.1116
 Red. masses --      3.4251                 3.9153                 4.2116
 Frc consts  --      3.7762                 4.3504                 4.8227
 IR Inten    --      2.9732                 0.1497                 2.4892

                     97                     98                     99
                     A'                     A'                     A'
 Frequencies --   1406.5624              1412.0425              1424.3711
 Red. masses --      4.7496                 5.8061                 4.3163
 Frc consts  --      5.5363                 6.8207                 5.1595
 IR Inten    --      0.4946                 0.8273                 0.2548

                    100                    101                    102
                     A'                     A'                     A'
 Frequencies --   1444.2081              1449.5475              1451.5335
 Red. masses --      5.6927                 1.9987                 2.6126
 Frc consts  --      6.9957                 2.4744                 3.2433
 IR Inten    --      4.0512                 2.6247                10.3733

                    103                    104                    105
                     A'                     A'                     A'
 Frequencies --   1465.7904              1470.0940              1489.7097
 Red. masses --      2.7708                 2.0750                 3.6925
 Frc consts  --      3.5076                 2.6422                 4.8281
 IR Inten    --      1.8827                 1.8842                 1.6522

                    106                    107                    108
                     A'                     A'                     A'
 Frequencies --   1493.7747              1514.3284              1524.9673
 Red. masses --      3.2917                 3.9227                 5.4286
 Frc consts  --      4.3276                 5.2999                 7.4381
 IR Inten    --      0.7052                 5.8844                 5.3658

                    109                    110                    111
                     A'                     A'                     A'
 Frequencies --   1539.2575              1544.2242              1556.4406
 Red. masses --      4.3841                 4.3625                 3.9353
 Frc consts  --      6.1200                 6.1292                 5.6168
 IR Inten    --      2.0093                 2.3986                 1.3657

                    112                    113                    114
                     A'                     A'                     A'
 Frequencies --   1569.8202              1612.9874              1640.4524
 Red. masses --      5.4245                 7.0919                 5.5758
 Frc consts  --      7.8761                10.8711                 8.8406
 IR Inten    --      1.2202                 1.3632                 1.3935

                    115                    116                    117
                     A'                     A'                     A'
 Frequencies --   1656.2465              1658.8527              1668.2460
 Red. masses --      7.1054                 6.0236                 6.7522
 Frc consts  --     11.4839                 9.7661                11.0718
 IR Inten    --      1.8114                13.7141                 1.1706

                    118                    119                    120
                     A'                     A'                     A'
 Frequencies --   1673.1994              1682.5736              1702.2936
 Red. masses --      7.0434                 6.5180                 6.9061
 Frc consts  --     11.6178                10.8721                11.7911
 IR Inten    --      2.6059                 2.4400                 3.8629

                    121                    122                    123
                     A'                     A'                     A'
 Frequencies --   1709.1015              1720.3459              3186.7257
 Red. masses --      7.0883                 7.5596                 1.0905
 Frc consts  --     12.1990                13.1819                 6.5248
 IR Inten    --      2.3115                 1.4623                 7.0269

                    124                    125                    126
                     A'                     A'                     A'
 Frequencies --   3186.7986              3189.6762              3189.8867
 Red. masses --      1.0863                 1.0866                 1.0866
 Frc consts  --      6.4998                 6.5132                 6.5142
 IR Inten    --      0.0794                 0.5562                 0.5679

                    127                    128                    129
                     A'                     A'                     A'
 Frequencies --   3194.0477              3195.4427              3196.1540
 Red. masses --      1.0891                 1.0896                 1.0900
 Frc consts  --      6.5466                 6.5553                 6.5607
 IR Inten    --      0.5020                 3.9442                 6.1032

                    130                    131                    132
                     A'                     A'                     A'
 Frequencies --   3197.8995              3198.0256              3206.4337
 Red. masses --      1.0909                 1.0911                 1.0974
 Frc consts  --      6.5729                 6.5747                 6.6474
 IR Inten    --     19.2507                16.6854                23.3105

                    133                    134                    135
                     A'                     A'                     A'
 Frequencies --   3215.4742              3216.0710              3219.8333
 Red. masses --      1.0970                 1.0971                 1.0917
 Frc consts  --      6.6828                 6.6858                 6.6681
 IR Inten    --     42.3799                30.6390                 2.6932

                    136                    137                    138
                     A'                     A'                     A'
 Frequencies --   3231.1742              3249.6720              3256.3928
 Red. masses --      1.0948                 1.0889                 1.0891
 Frc consts  --      6.7342                 6.7753                 6.8047
 IR Inten    --      3.7683                14.5242                18.0555

 - Thermochemistry -
 -------------------
 Temperature   298.150 Kelvin.  Pressure   1.00000 Atm.
 Atom     1 has atomic number  6 and mass  12.00000

 Molecular mass:   400.12520 amu.
 Principal axes and moments of inertia in atomic units:
                           1         2         3
     Eigenvalues --  4446.24317********************
           X            0.89904  -0.43787   0.00000
           Y            0.43787   0.89904   0.00000
           Z            0.00000   0.00000   1.00000
 This molecule is an asymmetric top.
 Rotational symmetry number  1.
 Warning -- assumption of classical behavior for rotation
           may cause significant error
 Rotational temperatures (Kelvin)      0.01948     0.00400     0.00332
 Rotational constants (GHZ):           0.40590     0.08336     0.06916
 Zero-point vibrational energy     990538.3 (Joules/Mol)
                                  236.74433 (Kcal/Mol)
 Warning -- explicit consideration of  35 degrees of freedom as
           vibrations may cause significant error
 Vibrational temperatures:     44.43    52.16   108.35   160.83   210.81
          (Kelvin)            213.59   261.22   268.93   307.28   347.17
                              357.89   375.65   419.36   425.58   490.64
                              518.52   566.66   572.24   593.75   638.74
                              677.70   692.08   709.04   734.27   734.72
                              761.58   765.13   770.57   783.97   789.09
                              794.36   800.85   823.85   842.79   856.76
                              897.14   929.14   950.36   984.46  1000.05
                             1024.31  1049.53  1051.91  1058.63  1110.36
                             1121.15  1124.46  1126.02  1174.29  1177.76
                             1179.55  1186.70  1214.45  1223.00  1223.73
                             1256.07  1279.51  1289.88  1294.98  1317.12
                             1324.82  1338.51  1348.01  1376.12  1396.33
                             1407.90  1426.77  1429.07  1433.32  1440.64
                             1445.75  1455.38  1558.32  1577.99  1601.79
                             1617.67  1649.01  1662.95  1675.75  1716.03
                             1717.50  1735.15  1746.60  1749.77  1762.86
                             1787.79  1828.37  1829.93  1847.66  1870.42
                             1889.47  1907.73  1953.21  1968.17  1975.84
                             2005.81  2023.73  2031.61  2049.35  2077.89
                             2085.57  2088.43  2108.94  2115.13  2143.36
                             2149.21  2178.78  2194.09  2214.65  2221.79
                             2239.37  2258.62  2320.73  2360.24  2382.97
                             2386.72  2400.23  2407.36  2420.85  2449.22
                             2459.01  2475.19  4584.98  4585.09  4589.23
                             4589.53  4595.52  4597.52  4598.55  4601.06
                             4601.24  4613.34  4626.34  4627.20  4632.62
                             4648.93  4675.55  4685.22

 Zero-point correction=                           0.377276 (Hartree/Particle)
 Thermal correction to Energy=                    0.396727
 Thermal correction to Enthalpy=                  0.397671
 Thermal correction to Gibbs Free Energy=         0.330417
 Sum of electronic and zero-point Energies=          -1228.753999
 Sum of electronic and thermal Energies=             -1228.734549
 Sum of electronic and thermal Enthalpies=           -1228.733604
 Sum of electronic and thermal Free Energies=        -1228.800859

                     E (Thermal)             CV                S
                      KCal/Mol        Cal/Mol-Kelvin    Cal/Mol-Kelvin
 Total                  248.950             86.635            141.548
 Electronic               0.000              0.000              0.000
 Translational            0.889              2.981             43.851
 Rotational               0.889              2.981             36.172
 Vibrational            247.172             80.674             61.525
 Vibration     1          0.594              1.984              5.772
 Vibration     2          0.594              1.982              5.454
 Vibration     3          0.599              1.965              4.010
 Vibration     4          0.607              1.940              3.238
 Vibration     5          0.617              1.906              2.717
 Vibration     6          0.618              1.904              2.692
 Vibration     7          0.630              1.865              2.312
 Vibration     8          0.632              1.858              2.258
 Vibration     9          0.644              1.820              2.013
 Vibration    10          0.658              1.777              1.793
 Vibration    11          0.662              1.765              1.739
 Vibration    12          0.669              1.744              1.654
 Vibration    13          0.687              1.690              1.465
 Vibration    14          0.690              1.682              1.441
 Vibration    15          0.721              1.594              1.207
 Vibration    16          0.735              1.554              1.120
 Vibration    17          0.761              1.483              0.986
 Vibration    18          0.764              1.475              0.971
 Vibration    19          0.776              1.443              0.917
 Vibration    20          0.803              1.374              0.814
 Vibration    21          0.828              1.314              0.735
 Vibration    22          0.837              1.292              0.707
 Vibration    23          0.849              1.266              0.676
 Vibration    24          0.865              1.227              0.633
 Vibration    25          0.866              1.226              0.632
 Vibration    26          0.884              1.185              0.589
 Vibration    27          0.887              1.180              0.583
 Vibration    28          0.891              1.171              0.575
 Vibration    29          0.900              1.151              0.555
 Vibration    30          0.904              1.143              0.547
 Vibration    31          0.907              1.135              0.540
 Vibration    32          0.912              1.125              0.531
 Vibration    33          0.929              1.091              0.499
 Vibration    34          0.943              1.062              0.475
 Vibration    35          0.953              1.041              0.457

 Optimization completed.
    -- Stationary point found.
 Normal termination of Gaussian 09 at Sun Jul 28 02:04:24 2019.
