 Gaussian 09, Revision D.01,
 Gaussian 09:  AM64L-G09RevD.01 24-Apr-2013

 ----------------------------------------------------------------------
 #P wB97XD/def2tzvp opt=(tight) freq integral(Grid=ultrafine) # SCF(Max
 Cycle=380) 5d 7f GFPrint
 ----------------------------------------------------------------------

 ---------------------------------------
 The PBEPBE optimization and frequencies
 ---------------------------------------
 Symbolic Z-matrix:
 Charge =  0 Multiplicity = 1

 SCF Done:  E(RwB97XD) =  -1229.14567446     A.U. after   15 cycles
 SCF Done:  E(RwB97XD) =  -1229.15230804     A.U. after   13 cycles
 SCF Done:  E(RwB97XD) =  -1229.15266673     A.U. after   11 cycles
 SCF Done:  E(RwB97XD) =  -1229.15267464     A.U. after    8 cycles
 SCF Done:  E(RwB97XD) =  -1229.15267514     A.U. after    7 cycles
 SCF Done:  E(RwB97XD) =  -1229.15267519     A.U. after    6 cycles
 SCF Done:  E(RwB97XD) =  -1229.15267519     A.U. after    4 cycles
 SCF Done:  E(RwB97XD) =  -1229.15267519     A.U. after    3 cycles
 Optimization completed.
    -- Stationary point found.
 Normal termination of Gaussian 09 at Sat Jul 27 22:32:22 2019.

 ---------------------------------------------------------------------
 #P Geom=AllCheck Guess=TCheck SCRF=Check GenChk RwB97XD/def2TZVP Freq
 ---------------------------------------------------------------------

 Structure from the checkpoint file:  "m1_00_75459-09-5-C32H16_wB97XD.chk"
 ---------------------------------------
 The PBEPBE optimization and frequencies
 ---------------------------------------
 Charge =  0 Multiplicity = 1

                         Standard orientation:
 ---------------------------------------------------------------------
 Center     Atomic      Atomic             Coordinates (Angstroms)
 Number     Number       Type             X           Y           Z
 ---------------------------------------------------------------------
      1          6           0        1.013576   -4.268438    0.000000
      2          6           0       -0.334549   -4.557933    0.000000
      3          6           0       -1.262769   -3.538312    0.000000
      4          6           0        1.466694   -2.951642    0.000000
      5          6           0        2.329281   -0.231022    0.000000
      6          6           0        1.792143    2.123536    0.000000
      7          6           0        2.713753    1.112500    0.000000
      8          6           0        0.420271    1.862846    0.000000
      9          6           0       -3.224560   -1.377852    0.000000
     10          6           0       -4.142666   -0.366972    0.000000
     11          6           0        0.956614   -0.528806    0.000000
     12          6           0        0.517411   -1.902905    0.000000
     13          6           0       -0.864065   -2.203987    0.000000
     14          6           0       -1.842057   -1.119580    0.000000
     15          6           0       -1.407549    0.209971    0.000000
     16          6           0        0.000000    0.522384    0.000000
     17          6           0        2.896480   -2.642499    0.000000
     18          6           0        3.319388   -1.304675    0.000000
     19          6           0        4.697926   -1.033555    0.000000
     20          6           0        5.631174   -2.040221    0.000000
     21          6           0        5.211367   -3.368202    0.000000
     22          6           0        3.868903   -3.655780    0.000000
     23          6           0       -0.558733    2.949176    0.000000
     24          6           0       -2.482982    4.996471    0.000000
     25          6           0       -1.140917    5.301574    0.000000
     26          6           0       -0.190698    4.289528    0.000000
     27          6           0       -2.900747    3.663899    0.000000
     28          6           0       -1.934317    2.629233    0.000000
     29          6           0       -2.359321    1.264961    0.000000
     30          6           0       -3.734909    0.973056    0.000000
     31          6           0       -4.688769    2.038179    0.000000
     32          6           0       -4.290992    3.324815    0.000000
     33          1           0        1.713624   -5.089885    0.000000
     34          1           0       -0.665172   -5.588687    0.000000
     35          1           0       -2.310037   -3.799190    0.000000
     36          1           0        2.154219    3.140914    0.000000
     37          1           0        3.758885    1.382307    0.000000
     38          1           0       -3.587815   -2.394318    0.000000
     39          1           0       -5.201630   -0.596191    0.000000
     40          1           0        5.050560   -0.013084    0.000000
     41          1           0        6.686492   -1.799468    0.000000
     42          1           0        5.936489   -4.171859    0.000000
     43          1           0        3.571179   -4.693635    0.000000
     44          1           0       -3.226822    5.784117    0.000000
     45          1           0       -0.818738    6.335095    0.000000
     46          1           0        0.851981    4.571517    0.000000
     47          1           0       -5.742311    1.785045    0.000000
     48          1           0       -5.017197    4.128840    0.000000
 ---------------------------------------------------------------------

 SCF Done:  E(RwB97XD) =  -1229.15267519     A.U. after    1 cycles

 The electronic state is 1-A'.
 Alpha  occ. eigenvalues --  -10.30560 -10.30535 -10.30515 -10.30510 -10.30483
 Alpha  occ. eigenvalues --  -10.30462 -10.30457 -10.30441 -10.30417 -10.30410
 Alpha  occ. eigenvalues --  -10.30397 -10.30390 -10.30252 -10.30185 -10.30108
 Alpha  occ. eigenvalues --  -10.29999 -10.29245 -10.29161 -10.29129 -10.29127
 Alpha  occ. eigenvalues --  -10.29106 -10.29094 -10.29065 -10.29057 -10.29053
 Alpha  occ. eigenvalues --  -10.29034 -10.29030 -10.29012 -10.28983 -10.28982
 Alpha  occ. eigenvalues --  -10.28945 -10.28919  -1.01603  -0.99628  -0.97434
 Alpha  occ. eigenvalues --   -0.96688  -0.95661  -0.92804  -0.90908  -0.90155
 Alpha  occ. eigenvalues --   -0.89343  -0.87198  -0.85719  -0.85145  -0.83583
 Alpha  occ. eigenvalues --   -0.82943  -0.82331  -0.80445  -0.74909  -0.74247
 Alpha  occ. eigenvalues --   -0.74062  -0.73268  -0.71950  -0.71273  -0.69700
 Alpha  occ. eigenvalues --   -0.67180  -0.65266  -0.65053  -0.64699  -0.62674
 Alpha  occ. eigenvalues --   -0.61088  -0.60747  -0.59371  -0.58735  -0.57736
 Alpha  occ. eigenvalues --   -0.56115  -0.55368  -0.55032  -0.53826  -0.53738
 Alpha  occ. eigenvalues --   -0.53220  -0.52849  -0.51645  -0.51531  -0.51050
 Alpha  occ. eigenvalues --   -0.50903  -0.50581  -0.50415  -0.49696  -0.49019
 Alpha  occ. eigenvalues --   -0.47761  -0.47027  -0.46739  -0.46015  -0.45970
 Alpha  occ. eigenvalues --   -0.45405  -0.45329  -0.44961  -0.44686  -0.42273
 Alpha  occ. eigenvalues --   -0.42018  -0.41949  -0.39702  -0.39682  -0.39369
 Alpha  occ. eigenvalues --   -0.38772  -0.37773  -0.35687  -0.33855  -0.32949
 Alpha  occ. eigenvalues --   -0.31399  -0.30396  -0.28664  -0.25918
 Alpha virt. eigenvalues --   -0.01743   0.01135   0.01691   0.02643   0.04339
 Alpha virt. eigenvalues --    0.05156   0.07062   0.10044   0.11888   0.12200
 Alpha virt. eigenvalues --    0.12274   0.12615   0.12721   0.13582   0.13872

 Mulliken charges:
               1
     1  C   -0.208352
     2  C   -0.093432
     3  C   -0.207429
     4  C    0.151979
     5  C    0.232832
     6  C   -0.256281
     7  C   -0.260588
     8  C    0.232584
     9  C   -0.203535
    10  C   -0.193178
    11  C   -0.024656
    12  C   -0.119167
    13  C    0.145819
    14  C    0.158835
    15  C   -0.021513
    16  C    0.010750
    17  C    0.068092
    18  C    0.067078
    19  C   -0.190513
    20  C   -0.101150
    21  C   -0.102814
    22  C   -0.195761
    23  C    0.086126
    24  C   -0.182282
    25  C   -0.083991
    26  C   -0.185249
    27  C    0.167066
    28  C   -0.107911
    29  C   -0.023198
    30  C    0.187295
    31  C   -0.181191
    32  C   -0.178566
    33  H    0.092922
    34  H    0.109461
    35  H    0.095760
    36  H    0.080643
    37  H    0.078328
    38  H    0.092280
    39  H    0.101535
    40  H    0.102115
    41  H    0.114786
    42  H    0.114990
    43  H    0.096656
    44  H    0.106961
    45  H    0.112291
    46  H    0.102260
    47  H    0.105685
    48  H    0.105633
 Sum of Mulliken charges =   0.00000

 Dipole moment (field-independent basis, Debye):
    X=              0.0595    Y=             -0.0234    Z=              0.0000  Tot=              0.0640
 Quadrupole moment (field-independent basis, Debye-Ang):
   XX=           -154.3353   YY=           -154.5900   ZZ=           -191.8375
   XY=             -0.3096   XZ=              0.0000   YZ=              0.0000

  Exact polarizability: 512.018 -75.106 532.711   0.000   0.000 154.379
 Approx polarizability: 565.517 -16.934 606.706   0.000   0.000 221.571

                      1                      2                      3
                     A"                     A"                     A"
 Frequencies --     15.7970                34.4336                68.6027
 Red. masses --      5.1447                 5.0316                 4.2450
 Frc consts  --      0.0008                 0.0035                 0.0118
 IR Inten    --      0.0041                 0.1312                 0.0173

                      4                      5                      6
                     A"                     A"                     A"
 Frequencies --     73.7125               122.7503               127.4526
 Red. masses --      3.9670                 4.3652                 4.7333
 Frc consts  --      0.0127                 0.0388                 0.0453
 IR Inten    --      0.2269                 0.8173                 3.8262

                      7                      8                      9
                     A"                     A'                     A"
 Frequencies --    156.4611               181.7456               200.8511
 Red. masses --      4.3965                 5.6769                 3.8610
 Frc consts  --      0.0634                 0.1105                 0.0918
 IR Inten    --      0.0871                 0.3952                 0.4935

                     10                     11                     12
                     A"                     A"                     A'
 Frequencies --    257.8142               276.4133               282.9003
 Red. masses --      4.3298                 4.6842                 7.6624
 Frc consts  --      0.1696                 0.2109                 0.3613
 IR Inten    --      1.0945                 0.1344                 0.1103

                     13                     14                     15
                     A'                     A"                     A'
 Frequencies --    292.0907               320.6799               325.0961
 Red. masses --      5.7550                 4.2139                 6.1526
 Frc consts  --      0.2893                 0.2553                 0.3831
 IR Inten    --      0.0041                 0.0045                 0.0382

                     16                     17                     18
                     A"                     A"                     A'
 Frequencies --    327.0384               356.4235               400.9303
 Red. masses --      4.9003                 5.0643                 5.7919
 Frc consts  --      0.3088                 0.3791                 0.5485
 IR Inten    --      0.4382                 2.4178                 0.1433

                     19                     20                     21
                     A'                     A'                     A"
 Frequencies --    424.3855               439.5522               452.2469
 Red. masses --      6.7304                 7.0092                 3.4188
 Frc consts  --      0.7142                 0.7979                 0.4120
 IR Inten    --      0.0480                 0.5456                 1.6672

                     22                     23                     24
                     A"                     A'                     A"
 Frequencies --    456.0928               471.2660               487.8029
 Red. masses --      3.9461                 7.0441                 3.8726
 Frc consts  --      0.4836                 0.9217                 0.5429
 IR Inten    --      0.0043                 0.4207                 0.0972

                     25                     26                     27
                     A'                     A"                     A'
 Frequencies --    491.0012               512.9397               519.0532
 Red. masses --      5.4121                 3.6970                 7.7227
 Frc consts  --      0.7687                 0.5731                 1.2259
 IR Inten    --      4.9478                 2.5005                 0.5233

                     28                     29                     30
                     A'                     A"                     A'
 Frequencies --    542.0786               542.9185               559.3276
 Red. masses --      4.7956                 3.5500                 6.0725
 Frc consts  --      0.8303                 0.6165                 1.1193
 IR Inten    --      1.9538                 0.8132                 3.8050

                     31                     32                     33
                     A"                     A"                     A'
 Frequencies --    570.3873               594.6797               599.4675
 Red. masses --      3.4240                 3.8259                 7.4600
 Frc consts  --      0.6563                 0.7972                 1.5795
 IR Inten    --      0.7363                 1.4673                 0.0396

                     34                     35                     36
                     A"                     A"                     A'
 Frequencies --    623.6361               629.5410               638.2865
 Red. masses --      4.2981                 3.5059                 8.0218
 Frc consts  --      0.9849                 0.8186                 1.9255
 IR Inten    --      0.3287                 6.6668                 0.0500

                     37                     38                     39
                     A'                     A"                     A'
 Frequencies --    642.1731               665.9001               677.5473
 Red. masses --      7.3948                 3.3913                 5.4592
 Frc consts  --      1.7967                 0.8860                 1.4766
 IR Inten    --      5.9674                 4.4901                 1.1610

                     40                     41                     42
                     A'                     A"                     A'
 Frequencies --    699.5261               700.0387               721.2191
 Red. masses --      6.6285                 2.7442                 6.2699
 Frc consts  --      1.9111                 0.7923                 1.9215
 IR Inten    --      1.1087                 0.7405                 0.0292

                     43                     44                     45
                     A"                     A'                     A"
 Frequencies --    752.1431               764.8990               769.1072
 Red. masses --      1.7610                 6.2225                 2.3207
 Frc consts  --      0.5870                 2.1450                 0.8088
 IR Inten    --     11.0534                 0.4979                18.3236

                     46                     47                     48
                     A"                     A'                     A"
 Frequencies --    780.4159               780.7979               783.8828
 Red. masses --      1.5316                 6.5521                 1.5318
 Frc consts  --      0.5496                 2.3535                 0.5546
 IR Inten    --     82.0532                 4.0038                20.2012

                     49                     50                     51
                     A"                     A"                     A'
 Frequencies --    787.9908               823.0306               827.0253
 Red. masses --      1.5995                 2.3598                 6.7603
 Frc consts  --      0.5852                 0.9418                 2.7243
 IR Inten    --      0.7922                20.3602                 1.2556

                     52                     53                     54
                     A"                     A"                     A'
 Frequencies --    836.6618               845.2278               852.0269
 Red. masses --      3.2923                 1.9733                 5.8811
 Frc consts  --      1.3579                 0.8306                 2.5155
 IR Inten    --      8.2779                 2.6636                 4.0085

                     55                     56                     57
                     A"                     A"                     A'
 Frequencies --    866.7457               870.9777               887.5869
 Red. masses --      1.8765                 1.8534                 6.3902
 Frc consts  --      0.8306                 0.8284                 2.9661
 IR Inten    --     57.0525                 3.6450                 0.7030

                     58                     59                     60
                     A"                     A"                     A"
 Frequencies --    894.4197               907.3150               920.1073
 Red. masses --      6.4653                 1.5432                 1.5664
 Frc consts  --      3.0473                 0.7485                 0.7813
 IR Inten    --      0.6570                 2.3889                 2.8688

                     61                     62                     63
                     A"                     A'                     A"
 Frequencies --    931.0231               947.0128               949.6513
 Red. masses --      7.1055                 6.2184                 1.3831
 Frc consts  --      3.6288                 3.2858                 0.7349
 IR Inten    --      0.1918                 0.3431                 0.0086

                     64                     65                     66
                     A"                     A"                     A"
 Frequencies --    961.9574               970.8422               982.0339
 Red. masses --      1.3342                 1.3349                 1.2995
 Frc consts  --      0.7274                 0.7413                 0.7384
 IR Inten    --      0.1361                 0.9233                 0.0096

                     67                     68                     69
                     A"                     A"                     A'
 Frequencies --    986.7117               991.8133               993.9530
 Red. masses --      1.3010                 1.2747                 6.1821
 Frc consts  --      0.7463                 0.7388                 3.5985
 IR Inten    --      0.2676                 0.0076                 2.6192

                     70                     71                     72
                     A"                     A'                     A'
 Frequencies --    998.0346              1036.2611              1066.3444
 Red. masses --      1.3174                 8.1568                 5.4089
 Frc consts  --      0.7731                 5.1607                 3.6237
 IR Inten    --      0.0000                 0.0382                 0.7970

                     73                     74                     75
                     A'                     A'                     A'
 Frequencies --   1081.6619              1098.2739              1120.4008
 Red. masses --      2.9414                 2.6153                 3.0794
 Frc consts  --      2.0276                 1.8586                 2.2775
 IR Inten    --      4.4674                 5.4967                 0.4224

                     76                     77                     78
                     A'                     A'                     A'
 Frequencies --   1132.7924              1142.6476              1154.1130
 Red. masses --      1.9680                 2.7060                 1.6958
 Frc consts  --      1.4879                 2.0816                 1.3308
 IR Inten    --      5.2448                 1.2752                 0.5637

                     79                     80                     81
                     A'                     A'                     A'
 Frequencies --   1174.0349              1180.3041              1198.3208
 Red. masses --      1.7362                 1.3895                 1.2107
 Frc consts  --      1.4100                 1.1405                 1.0243
 IR Inten    --      2.1308                 0.2554                 1.7954

                     82                     83                     84
                     A'                     A'                     A'
 Frequencies --   1206.8433              1211.7115              1232.6726
 Red. masses --      1.2912                 1.2711                 2.5089
 Frc consts  --      1.1080                 1.0996                 2.2461
 IR Inten    --      3.4050                 0.0640                 3.5546

                     85                     86                     87
                     A'                     A'                     A'
 Frequencies --   1248.9291              1260.9826              1263.6033
 Red. masses --      1.7548                 1.5688                 3.1589
 Frc consts  --      1.6127                 1.4697                 2.9718
 IR Inten    --      2.2315                 1.0023                 0.1533

                     88                     89                     90
                     A'                     A'                     A'
 Frequencies --   1276.3547              1288.0599              1302.4458
 Red. masses --      1.8217                 1.7209                 1.7911
 Frc consts  --      1.7485                 1.6822                 1.7902
 IR Inten    --      2.1594                 0.6503                 7.6253

                     91                     92                     93
                     A'                     A'                     A'
 Frequencies --   1309.7811              1314.3146              1337.6874
 Red. masses --      2.1840                 3.1647                 3.4010
 Frc consts  --      2.2075                 3.2209                 3.5856
 IR Inten    --      3.6581                 1.0653                 1.7060

                     94                     95                     96
                     A'                     A'                     A'
 Frequencies --   1347.4406              1363.2008              1375.2102
 Red. masses --      3.9906                 3.5594                 3.6249
 Frc consts  --      4.2688                 3.8971                 4.0391
 IR Inten    --      1.1325                 5.7145                 0.3229

                     97                     98                     99
                     A'                     A'                     A'
 Frequencies --   1379.7741              1389.6802              1404.8096
 Red. masses --      4.8133                 4.8085                 4.2229
 Frc consts  --      5.3989                 5.4713                 4.9101
 IR Inten    --      1.0172                 1.8501                 1.6014

                    100                    101                    102
                     A'                     A'                     A'
 Frequencies --   1412.0755              1416.8194              1447.0914
 Red. masses --      4.1802                 4.7827                 3.7856
 Frc consts  --      4.9109                 5.6566                 4.6707
 IR Inten    --     13.2951                 6.0119                 4.8211

                    103                    104                    105
                     A'                     A'                     A'
 Frequencies --   1464.5634              1475.0204              1483.6083
 Red. masses --      3.1348                 2.0382                 3.2941
 Frc consts  --      3.9616                 2.6127                 4.2720
 IR Inten    --      7.2230                 2.2124                30.2430

                    106                    107                    108
                     A'                     A'                     A'
 Frequencies --   1494.9399              1512.8577              1532.3888
 Red. masses --      3.0017                 3.4818                 3.6904
 Frc consts  --      3.9525                 4.6951                 5.1058
 IR Inten    --     26.1287                 0.2646                 0.9912

                    109                    110                    111
                     A'                     A'                     A'
 Frequencies --   1537.6265              1555.9026              1567.9207
 Red. masses --      2.9560                 3.5285                 3.7063
 Frc consts  --      4.1177                 5.0327                 5.3683
 IR Inten    --      5.9971                 3.7570                 1.8224

                    112                    113                    114
                     A'                     A'                     A'
 Frequencies --   1586.7439              1611.8757              1629.0419
 Red. masses --      4.3459                 5.2291                 4.6399
 Frc consts  --      6.4468                 8.0047                 7.2547
 IR Inten    --      2.7855                 2.2601                 0.5034

                    115                    116                    117
                     A'                     A'                     A'
 Frequencies --   1658.2702              1661.5041              1671.9383
 Red. masses --      5.6071                 7.2586                 6.6851
 Frc consts  --      9.0845                11.8062                11.0103
 IR Inten    --      1.1899                 1.8013                12.0172

                    118                    119                    120
                     A'                     A'                     A'
 Frequencies --   1680.2861              1683.1664              1688.2917
 Red. masses --      6.8488                 6.9804                 5.9096
 Frc consts  --     11.3928                11.6516                 9.9243
 IR Inten    --      0.8841                 4.7201                 1.0535

                    121                    122                    123
                     A'                     A'                     A'
 Frequencies --   1690.5539              1709.9880              3188.4582
 Red. masses --      7.2098                 7.3291                 1.0865
 Frc consts  --     12.1403                12.6267                 6.5078
 IR Inten    --      3.1484                 1.7600                 0.7077

                    124                    125                    126
                     A'                     A'                     A'
 Frequencies --   3193.9674              3195.8765              3198.7573
 Red. masses --      1.0872                 1.0897                 1.0866
 Frc consts  --      6.5347                 6.5572                 6.5503
 IR Inten    --      1.5226                 9.3413                 0.4577

                    127                    128                    129
                     A'                     A'                     A'
 Frequencies --   3204.1891              3207.9782              3210.6423
 Red. masses --      1.0889                 1.0972                 1.0931
 Frc consts  --      6.5865                 6.6526                 6.6391
 IR Inten    --     14.8833                22.2973                38.0916

                    130                    131                    132
                     A'                     A'                     A'
 Frequencies --   3213.4753              3222.0008              3229.1716
 Red. masses --      1.0919                 1.0914                 1.0936
 Frc consts  --      6.6431                 6.6753                 6.7189
 IR Inten    --     14.6643                 0.2218                 1.2119

                    133                    134                    135
                     A'                     A'                     A'
 Frequencies --   3230.8659              3232.6356              3242.8292
 Red. masses --      1.0946                 1.0958                 1.0891
 Frc consts  --      6.7320                 6.7469                 6.7481
 IR Inten    --      4.9004                 1.8552                 3.2485

                    136                    137                    138
                     A'                     A'                     A'
 Frequencies --   3252.5317              3254.5226              3255.6970
 Red. masses --      1.0881                 1.0901                 1.0902
 Frc consts  --      6.7819                 6.8028                 6.8084
 IR Inten    --      8.7251                29.3807                13.1892

 - Thermochemistry -
 -------------------
 Temperature   298.150 Kelvin.  Pressure   1.00000 Atm.
 Atom     1 has atomic number  6 and mass  12.00000

 Molecular mass:   400.12520 amu.
 Principal axes and moments of inertia in atomic units:
                           1         2         3
     Eigenvalues --  6206.24561********************
           X            0.72598   0.68771   0.00000
           Y           -0.68771   0.72598   0.00000
           Z            0.00000   0.00000   1.00000
 This molecule is an asymmetric top.
 Rotational symmetry number  1.
 Warning -- assumption of classical behavior for rotation
           may cause significant error
 Rotational temperatures (Kelvin)      0.01396     0.00522     0.00380
 Rotational constants (GHZ):           0.29079     0.10876     0.07915
 Zero-point vibrational energy     991407.5 (Joules/Mol)
                                  236.95207 (Kcal/Mol)
 Warning -- explicit consideration of  33 degrees of freedom as
           vibrations may cause significant error
 Vibrational temperatures:     22.73    49.54    98.70   106.06   176.61
          (Kelvin)            183.38   225.11   261.49   288.98   370.94
                              397.70   407.03   420.25   461.39   467.74
                              470.53   512.81   576.85   610.60   632.42
                              650.68   656.22   678.05   701.84   706.44
                              738.00   746.80   779.93   781.14   804.75
                              820.66   855.61   862.50   897.27   905.77
                              918.35   923.94   958.08   974.84  1006.46
                             1007.20  1037.67  1082.16  1100.52  1106.57
                             1122.84  1123.39  1127.83  1133.74  1184.16
                             1189.90  1203.77  1216.09  1225.88  1247.05
                             1253.14  1277.04  1286.87  1305.42  1323.83
                             1339.53  1362.54  1366.33  1384.04  1396.82
                             1412.93  1419.66  1427.00  1430.07  1435.95
                             1490.95  1534.23  1556.27  1580.17  1612.00
                             1629.83  1644.01  1660.51  1689.17  1698.19
                             1724.11  1736.38  1743.38  1773.54  1796.93
                             1814.27  1818.04  1836.39  1853.23  1873.93
                             1884.48  1891.00  1924.63  1938.66  1961.34
                             1978.62  1985.18  1999.44  2021.21  2031.66
                             2038.48  2082.04  2107.18  2122.22  2134.58
                             2150.88  2176.66  2204.76  2212.30  2238.59
                             2255.89  2282.97  2319.13  2343.83  2385.88
                             2390.53  2405.54  2417.55  2421.70  2429.07
                             2432.33  2460.29  4587.47  4595.40  4598.15
                             4602.29  4610.11  4615.56  4619.39  4623.47
                             4635.73  4646.05  4648.49  4651.04  4665.70
                             4679.66  4682.53  4684.22

 Zero-point correction=                           0.377607 (Hartree/Particle)
 Thermal correction to Energy=                    0.397265
 Thermal correction to Enthalpy=                  0.398210
 Thermal correction to Gibbs Free Energy=         0.329457
 Sum of electronic and zero-point Energies=          -1228.775068
 Sum of electronic and thermal Energies=             -1228.755410
 Sum of electronic and thermal Enthalpies=           -1228.754466
 Sum of electronic and thermal Free Energies=        -1228.823218

                     E (Thermal)             CV                S
                      KCal/Mol        Cal/Mol-Kelvin    Cal/Mol-Kelvin
 Total                  249.288             86.491            144.702
 Electronic               0.000              0.000              0.000
 Translational            0.889              2.981             43.851
 Rotational               0.889              2.981             36.105
 Vibrational            247.510             80.530             64.745
 Vibration     1          0.593              1.986              7.103
 Vibration     2          0.594              1.983              5.556
 Vibration     3          0.598              1.969              4.193
 Vibration     4          0.599              1.966              4.052
 Vibration     5          0.610              1.930              3.057
 Vibration     6          0.611              1.926              2.984
 Vibration     7          0.620              1.895              2.592
 Vibration     8          0.630              1.865              2.310
 Vibration     9          0.638              1.839              2.125
 Vibration    10          0.667              1.750              1.677
 Vibration    11          0.678              1.717              1.556
 Vibration    12          0.682              1.705              1.516
 Vibration    13          0.687              1.688              1.462
 Vibration    14          0.706              1.634              1.307
 Vibration    15          0.709              1.625              1.284
 Vibration    16          0.711              1.621              1.275
 Vibration    17          0.732              1.562              1.138
 Vibration    18          0.767              1.468              0.959
 Vibration    19          0.786              1.417              0.877
 Vibration    20          0.800              1.384              0.828
 Vibration    21          0.811              1.356              0.789
 Vibration    22          0.814              1.347              0.778
 Vibration    23          0.828              1.314              0.734
 Vibration    24          0.844              1.277              0.689
 Vibration    25          0.847              1.270              0.681
 Vibration    26          0.868              1.221              0.627
 Vibration    27          0.874              1.208              0.612
 Vibration    28          0.897              1.157              0.561
 Vibration    29          0.898              1.155              0.559
 Vibration    30          0.915              1.119              0.525
 Vibration    31          0.926              1.095              0.503
 Vibration    32          0.952              1.043              0.459
 Vibration    33          0.958              1.033              0.451

 Optimization completed.
    -- Stationary point found.
 Normal termination of Gaussian 09 at Sun Jul 28 07:00:21 2019.
