 Gaussian 09, Revision D.01,
 Gaussian 09:  AM64L-G09RevD.01 24-Apr-2013

 ----------------------------------------------------------------------
 #P wB97XD/def2tzvp opt=(tight) freq integral(Grid=ultrafine) # SCF(Max
 Cycle=380) 5d 7f GFPrint
 ----------------------------------------------------------------------

 ---------------------------------------
 The PBEPBE optimization and frequencies
 ---------------------------------------
 Symbolic Z-matrix:
 Charge =  0 Multiplicity = 1

 SCF Done:  E(RwB97XD) =  -1229.14100956     A.U. after   15 cycles
 SCF Done:  E(RwB97XD) =  -1229.14372067     A.U. after   14 cycles
 SCF Done:  E(RwB97XD) =  -1229.14568338     A.U. after   13 cycles
 SCF Done:  E(RwB97XD) =  -1229.14658494     A.U. after   12 cycles
 SCF Done:  E(RwB97XD) =  -1229.14663963     A.U. after   11 cycles
 SCF Done:  E(RwB97XD) =  -1229.14664384     A.U. after    9 cycles
 SCF Done:  E(RwB97XD) =  -1229.14664413     A.U. after    7 cycles
 SCF Done:  E(RwB97XD) =  -1229.14664417     A.U. after    6 cycles
 SCF Done:  E(RwB97XD) =  -1229.14664418     A.U. after    6 cycles
 SCF Done:  E(RwB97XD) =  -1229.14664418     A.U. after    5 cycles
 SCF Done:  E(RwB97XD) =  -1229.14664418     A.U. after    2 cycles
 SCF Done:  E(RwB97XD) =  -1229.14664418     A.U. after    2 cycles
 Optimization completed.
    -- Stationary point found.
 Normal termination of Gaussian 09 at Sat Jul 27 18:42:19 2019.

 ---------------------------------------------------------------------
 #P Geom=AllCheck Guess=TCheck SCRF=Check GenChk RwB97XD/def2TZVP Freq
 ---------------------------------------------------------------------

 Structure from the checkpoint file:  "m1_00_120835-90-7-C32H16_wB97XD.chk"
 ---------------------------------------
 The PBEPBE optimization and frequencies
 ---------------------------------------
 Charge =  0 Multiplicity = 1

                         Standard orientation:
 ---------------------------------------------------------------------
 Center     Atomic      Atomic             Coordinates (Angstroms)
 Number     Number       Type             X           Y           Z
 ---------------------------------------------------------------------
      1          6           0       -1.366545   -2.254981   -0.493022
      2          6           0       -0.356148   -3.165857   -0.538779
      3          6           0        0.981754   -2.781430   -0.313883
      4          6           0        1.263093   -1.415339   -0.144822
      5          6           0        3.329479   -3.321881   -0.114561
      6          6           0        2.046390   -3.722318   -0.294807
      7          6           0        0.207198   -0.461321   -0.133942
      8          6           0       -1.129044   -0.884439   -0.211796
      9          6           0        0.521055    0.932559   -0.072399
     10          6           0       -0.499482    1.883430   -0.191267
     11          6           0       -0.145154    3.254593   -0.159855
     12          6           0        1.146730    3.655343   -0.005924
     13          6           0        1.874962    1.347903    0.057434
     14          6           0        2.192899    2.715634    0.106118
     15          6           0        3.549225    3.110909    0.260648
     16          6           0        4.540430    2.189187    0.346628
     17          6           0        2.919514    0.384720    0.124689
     18          6           0        4.253989    0.799442    0.270117
     19          6           0        5.276338   -0.179525    0.319012
     20          6           0        4.984755   -1.503311    0.205664
     21          6           0        3.649735   -1.945981    0.038044
     22          6           0        2.614516   -0.996272    0.010287
     23          6           0       -1.875105    1.445271   -0.269458
     24          6           0       -2.193146    0.093028   -0.116988
     25          6           0       -4.222808    2.006105   -0.510218
     26          6           0       -2.926578    2.382458   -0.502939
     27          6           0       -4.592001    0.684670   -0.138790
     28          6           0       -3.578112   -0.265795    0.121923
     29          6           0       -3.979384   -1.484065    0.716328
     30          6           0       -5.301000   -1.782378    0.922059
     31          6           0       -6.303080   -0.877539    0.547096
     32          6           0       -5.946370    0.342748    0.043417
     33          1           0       -2.368010   -2.581603   -0.725175
     34          1           0       -0.573864   -4.202692   -0.766238
     35          1           0        4.133344   -4.048215   -0.094823
     36          1           0        1.812235   -4.772187   -0.425366
     37          1           0       -0.911585    4.012408   -0.226923
     38          1           0        1.384538    4.711739    0.034058
     39          1           0        3.778599    4.168931    0.306372
     40          1           0        5.571320    2.501855    0.463384
     41          1           0        6.303005    0.145424    0.439503
     42          1           0        5.777419   -2.241553    0.235756
     43          1           0       -5.002334    2.723024   -0.738404
     44          1           0       -2.683264    3.410483   -0.726038
     45          1           0       -3.232404   -2.177404    1.070847
     46          1           0       -5.569085   -2.717848    1.396580
     47          1           0       -7.345866   -1.127239    0.695045
     48          1           0       -6.702681    1.081472   -0.194661
 ---------------------------------------------------------------------

 SCF Done:  E(RwB97XD) =  -1229.14664418     A.U. after    1 cycles

 The electronic state is 1-A.
 Alpha  occ. eigenvalues --  -10.30896 -10.30622 -10.30606 -10.30559 -10.30486
 Alpha  occ. eigenvalues --  -10.30371 -10.30284 -10.30197 -10.30191 -10.30146
 Alpha  occ. eigenvalues --  -10.30124 -10.30083 -10.30068 -10.30041 -10.30001
 Alpha  occ. eigenvalues --  -10.29998 -10.29292 -10.29269 -10.29258 -10.29256
 Alpha  occ. eigenvalues --  -10.29214 -10.29187 -10.29180 -10.29180 -10.29167
 Alpha  occ. eigenvalues --  -10.29087 -10.29085 -10.29080 -10.29014 -10.28996
 Alpha  occ. eigenvalues --  -10.28983 -10.28925  -1.01777  -0.99370  -0.97979
 Alpha  occ. eigenvalues --   -0.97074  -0.93940  -0.93150  -0.91902  -0.90471
 Alpha  occ. eigenvalues --   -0.88315  -0.87265  -0.86027  -0.84867  -0.84137
 Alpha  occ. eigenvalues --   -0.83197  -0.81419  -0.80989  -0.74457  -0.74124
 Alpha  occ. eigenvalues --   -0.73520  -0.73225  -0.72905  -0.70996  -0.69774
 Alpha  occ. eigenvalues --   -0.67476  -0.65591  -0.64022  -0.63510  -0.63508
 Alpha  occ. eigenvalues --   -0.61718  -0.61201  -0.59286  -0.58304  -0.56941
 Alpha  occ. eigenvalues --   -0.56379  -0.55367  -0.54753  -0.54439  -0.53804
 Alpha  occ. eigenvalues --   -0.53057  -0.52563  -0.52123  -0.51566  -0.51042
 Alpha  occ. eigenvalues --   -0.50648  -0.50061  -0.49973  -0.49525  -0.48769
 Alpha  occ. eigenvalues --   -0.48554  -0.48115  -0.47301  -0.46295  -0.45916
 Alpha  occ. eigenvalues --   -0.45136  -0.44856  -0.44190  -0.43597  -0.42442
 Alpha  occ. eigenvalues --   -0.42315  -0.41881  -0.41025  -0.39715  -0.39524
 Alpha  occ. eigenvalues --   -0.38957  -0.36607  -0.35202  -0.34045  -0.33103
 Alpha  occ. eigenvalues --   -0.31963  -0.30544  -0.26839  -0.26591
 Alpha virt. eigenvalues --   -0.01040  -0.00770   0.02235   0.03319   0.04369
 Alpha virt. eigenvalues --    0.05648   0.07181   0.08739   0.11244   0.12418
 Alpha virt. eigenvalues --    0.12710   0.12762   0.13752   0.13783   0.13818

 Mulliken charges:
               1
     1  C   -0.314632
     2  C   -0.182381
     3  C    0.151375
     4  C   -0.031769
     5  C   -0.175277
     6  C   -0.168716
     7  C    0.024700
     8  C    0.129440
     9  C   -0.031242
    10  C    0.143337
    11  C   -0.177834
    12  C   -0.199313
    13  C   -0.016907
    14  C    0.164284
    15  C   -0.174366
    16  C   -0.167786
    17  C   -0.049218
    18  C    0.148829
    19  C   -0.170309
    20  C   -0.166057
    21  C    0.157346
    22  C   -0.032581
    23  C    0.076697
    24  C    0.115498
    25  C   -0.239453
    26  C   -0.178531
    27  C    0.151416
    28  C    0.085321
    29  C   -0.375150
    30  C   -0.090099
    31  C   -0.115028
    32  C   -0.169789
    33  H    0.189373
    34  H    0.107512
    35  H    0.105883
    36  H    0.106192
    37  H    0.094622
    38  H    0.103654
    39  H    0.106231
    40  H    0.106087
    41  H    0.105437
    42  H    0.105590
    43  H    0.107487
    44  H    0.105313
    45  H    0.186683
    46  H    0.118682
    47  H    0.117897
    48  H    0.111553
 Sum of Mulliken charges =   0.00000

 Dipole moment (field-independent basis, Debye):
    X=             -0.0561    Y=              0.0500    Z=              0.0454  Tot=              0.0878
 Quadrupole moment (field-independent basis, Debye-Ang):
   XX=           -155.3856   YY=           -157.1812   ZZ=           -189.8425
   XY=             -0.3616   XZ=              1.0866   YZ=             -1.4523

  Exact polarizability: 602.840   6.366 440.418   8.270  -5.446 166.402
 Approx polarizability: 628.260   5.984 565.622  17.334  -8.895 235.697

                      1                      2                      3
                      A                      A                      A
 Frequencies --     37.8800                52.7958                91.7359
 Red. masses --      5.6587                 4.9148                 4.8591
 Frc consts  --      0.0048                 0.0081                 0.0241
 IR Inten    --      0.1825                 0.0301                 0.6024

                      4                      5                      6
                      A                      A                      A
 Frequencies --    105.6105               119.6082               132.6115
 Red. masses --      4.8572                 4.8852                 5.0963
 Frc consts  --      0.0319                 0.0412                 0.0528
 IR Inten    --      0.1531                 0.4947                 3.5600

                      7                      8                      9
                      A                      A                      A
 Frequencies --    187.2107               199.0252               221.2650
 Red. masses --      4.2915                 4.5801                 5.1512
 Frc consts  --      0.0886                 0.1069                 0.1486
 IR Inten    --      0.3407                 1.2649                 0.4094

                     10                     11                     12
                      A                      A                      A
 Frequencies --    249.5133               274.3037               296.3362
 Red. masses --      5.5249                 5.3814                 4.7854
 Frc consts  --      0.2027                 0.2386                 0.2476
 IR Inten    --      0.3338                 0.4692                 0.2800

                     13                     14                     15
                      A                      A                      A
 Frequencies --    305.7449               309.7355               345.3127
 Red. masses --      5.4022                 4.6284                 4.7018
 Frc consts  --      0.2975                 0.2616                 0.3303
 IR Inten    --      0.8837                 0.1303                 2.0268

                     16                     17                     18
                      A                      A                      A
 Frequencies --    362.2995               385.1501               390.0250
 Red. masses --      5.8051                 6.1301                 6.1754
 Frc consts  --      0.4489                 0.5358                 0.5535
 IR Inten    --      1.3638                 1.0923                 3.2748

                     19                     20                     21
                      A                      A                      A
 Frequencies --    420.6374               431.3792               442.9347
 Red. masses --      7.1315                 4.3640                 4.0994
 Frc consts  --      0.7434                 0.4785                 0.4739
 IR Inten    --      0.3947                 1.7527                 2.9040

                     22                     23                     24
                      A                      A                      A
 Frequencies --    465.7713               485.4661               495.0672
 Red. masses --      3.7798                 5.5722                 5.4756
 Frc consts  --      0.4831                 0.7737                 0.7907
 IR Inten    --      3.0407                 3.6463                 0.7035

                     25                     26                     27
                      A                      A                      A
 Frequencies --    496.9388               506.3217               533.5593
 Red. masses --      4.9171                 4.2641                 5.1369
 Frc consts  --      0.7154                 0.6441                 0.8616
 IR Inten    --      1.9266                 0.6647                 2.8801

                     28                     29                     30
                      A                      A                      A
 Frequencies --    544.5568               549.7099               564.5890
 Red. masses --      4.5790                 4.7167                 4.3636
 Frc consts  --      0.8000                 0.8398                 0.8195
 IR Inten    --      0.9486                 0.0424                 0.5361

                     31                     32                     33
                      A                      A                      A
 Frequencies --    569.8872               572.3049               606.2721
 Red. masses --      3.7729                 3.8398                 6.2874
 Frc consts  --      0.7219                 0.7410                 1.3616
 IR Inten    --      6.9724                 3.4212                10.3805

                     34                     35                     36
                      A                      A                      A
 Frequencies --    617.3321               627.5348               644.3223
 Red. masses --      3.8842                 5.8477                 4.4735
 Frc consts  --      0.8721                 1.3568                 1.0942
 IR Inten    --     21.0914                 0.8733                 2.2812

                     37                     38                     39
                      A                      A                      A
 Frequencies --    665.2212               669.0701               684.3822
 Red. masses --      7.2896                 6.6813                 3.8394
 Frc consts  --      1.9006                 1.7622                 1.0595
 IR Inten    --      3.1897                 0.7750                 0.4030

                     40                     41                     42
                      A                      A                      A
 Frequencies --    694.7141               707.0820               715.2694
 Red. masses --      4.8552                 2.8071                 6.4318
 Frc consts  --      1.3806                 0.8269                 1.9387
 IR Inten    --      2.2455                 3.2842                 2.7197

                     43                     44                     45
                      A                      A                      A
 Frequencies --    725.6603               754.4088               778.0430
 Red. masses --      3.6589                 6.7332                 1.3231
 Frc consts  --      1.1352                 2.2578                 0.4719
 IR Inten    --      9.1135                 0.7289                21.5710

                     46                     47                     48
                      A                      A                      A
 Frequencies --    791.9158               797.5941               799.5247
 Red. masses --      1.3442                 3.2497                 2.1761
 Frc consts  --      0.4967                 1.2180                 0.8196
 IR Inten    --      0.3243                 9.5450                 8.1544

                     49                     50                     51
                      A                      A                      A
 Frequencies --    813.0130               818.4528               830.5916
 Red. masses --      4.2402                 3.3787                 1.7432
 Frc consts  --      1.6513                 1.3335                 0.7086
 IR Inten    --      3.8291                 2.1100                53.3377

                     52                     53                     54
                      A                      A                      A
 Frequencies --    842.7827               849.6782               865.3439
 Red. masses --      3.7880                 3.2537                 2.4913
 Frc consts  --      1.5852                 1.3840                 1.0991
 IR Inten    --      1.5506                 3.7553                 0.7547

                     55                     56                     57
                      A                      A                      A
 Frequencies --    870.9786               883.6570               886.0174
 Red. masses --      2.5040                 2.4025                 3.4520
 Frc consts  --      1.1192                 1.1053                 1.5966
 IR Inten    --      8.6352                29.7613                22.6869

                     58                     59                     60
                      A                      A                      A
 Frequencies --    890.2930               893.1083               909.1667
 Red. masses --      3.1039                 3.5192                 1.7868
 Frc consts  --      1.4495                 1.6539                 0.8702
 IR Inten    --     36.7275                19.7924                 8.3840

                     61                     62                     63
                      A                      A                      A
 Frequencies --    915.3310               965.1107               979.6628
 Red. masses --      7.9979                 5.4685                 1.3085
 Frc consts  --      3.9480                 3.0010                 0.7399
 IR Inten    --      0.7101                 0.0140                 0.4650

                     64                     65                     66
                      A                      A                      A
 Frequencies --    984.4465               986.1218               992.6292
 Red. masses --      1.3284                 1.3284                 1.3295
 Frc consts  --      0.7585                 0.7611                 0.7718
 IR Inten    --      0.3514                 0.3691                 0.0699

                     67                     68                     69
                      A                      A                      A
 Frequencies --    995.5839               998.0564              1002.5765
 Red. masses --      1.3457                 1.3545                 1.3915
 Frc consts  --      0.7859                 0.7950                 0.8241
 IR Inten    --      0.3487                 0.7009                 0.8807

                     70                     71                     72
                      A                      A                      A
 Frequencies --   1004.7983              1030.9024              1038.1278
 Red. masses --      3.7696                 4.0814                 1.3467
 Frc consts  --      2.2424                 2.5556                 0.8551
 IR Inten    --      0.6369                 0.0427                 0.8531

                     73                     74                     75
                      A                      A                      A
 Frequencies --   1053.1597              1080.8796              1119.4763
 Red. masses --      3.9769                 2.0806                 3.0340
 Frc consts  --      2.5989                 1.4322                 2.2402
 IR Inten    --      3.7506                 3.2107                 1.9531

                     76                     77                     78
                      A                      A                      A
 Frequencies --   1147.4339              1152.9225              1179.0698
 Red. masses --      2.4192                 2.2042                 1.3789
 Frc consts  --      1.8767                 1.7262                 1.1294
 IR Inten    --      0.3216                 0.4508                 2.9795

                     79                     80                     81
                      A                      A                      A
 Frequencies --   1182.1201              1186.1281              1197.9061
 Red. masses --      1.4092                 1.2846                 1.6242
 Frc consts  --      1.1602                 1.0648                 1.3732
 IR Inten    --      5.3517                 1.0309                 0.4226

                     82                     83                     84
                      A                      A                      A
 Frequencies --   1201.7554              1211.2047              1214.4430
 Red. masses --      1.2982                 1.4172                 1.8853
 Frc consts  --      1.1046                 1.2250                 1.6383
 IR Inten    --      1.3775                 2.8294                 0.1634

                     85                     86                     87
                      A                      A                      A
 Frequencies --   1239.4969              1252.4962              1255.9662
 Red. masses --      2.2508                 1.9019                 1.8096
 Frc consts  --      2.0374                 1.7579                 1.6819
 IR Inten    --      0.9437                 1.9991                 1.8141

                     88                     89                     90
                      A                      A                      A
 Frequencies --   1262.0230              1269.6302              1277.1874
 Red. masses --      1.6316                 1.8729                 1.9487
 Frc consts  --      1.5311                 1.7788                 1.8728
 IR Inten    --      2.8138                 0.5644                 4.8571

                     91                     92                     93
                      A                      A                      A
 Frequencies --   1284.3801              1312.6664              1344.3411
 Red. masses --      2.0518                 2.0451                 3.8304
 Frc consts  --      1.9942                 2.0762                 4.0786
 IR Inten    --      7.2270                 6.6930                11.4887

                     94                     95                     96
                      A                      A                      A
 Frequencies --   1369.2327              1375.0698              1379.5033
 Red. masses --      4.7835                 3.1267                 4.3724
 Frc consts  --      5.2838                 3.4833                 4.9025
 IR Inten    --      3.4892                 9.5867                 4.1721

                     97                     98                     99
                      A                      A                      A
 Frequencies --   1400.0588              1404.7799              1443.3196
 Red. masses --      6.5794                 7.1366                 4.5734
 Frc consts  --      7.5985                 8.2977                 5.6133
 IR Inten    --      1.0996                 0.2921                 5.8965

                    100                    101                    102
                      A                      A                      A
 Frequencies --   1446.4302              1448.0404              1453.8526
 Red. masses --      2.9466                 3.4481                 3.9139
 Frc consts  --      3.6322                 4.2599                 4.8742
 IR Inten    --      0.2840                 0.5781                 2.7572

                    103                    104                    105
                      A                      A                      A
 Frequencies --   1458.8936              1467.8064              1479.6925
 Red. masses --      3.5953                 2.4039                 3.8089
 Frc consts  --      4.5085                 3.0515                 4.9136
 IR Inten    --      3.5441                 1.4629                 0.0213

                    106                    107                    108
                      A                      A                      A
 Frequencies --   1488.6478              1497.2434              1506.1389
 Red. masses --      3.2180                 4.4517                 3.4914
 Frc consts  --      4.2016                 5.8798                 4.6663
 IR Inten    --      2.7359                 1.6714                 1.7847

                    109                    110                    111
                      A                      A                      A
 Frequencies --   1530.1166              1546.8919              1564.8915
 Red. masses --      3.8167                 3.6077                 5.1848
 Frc consts  --      5.2649                 5.0863                 7.4809
 IR Inten    --      0.9836                 6.0497                10.0640

                    112                    113                    114
                      A                      A                      A
 Frequencies --   1568.0354              1590.6573              1597.3569
 Red. masses --      3.5196                 4.0983                 5.6022
 Frc consts  --      5.0987                 6.1095                 8.4220
 IR Inten    --      1.9146                 0.2776                 1.7502

                    115                    116                    117
                      A                      A                      A
 Frequencies --   1633.7064              1654.6741              1679.6819
 Red. masses --     10.9922                 7.8276                 5.8647
 Frc consts  --     17.2856                12.6271                 9.7487
 IR Inten    --      0.0596                 0.8048                 2.5971

                    118                    119                    120
                      A                      A                      A
 Frequencies --   1686.5852              1689.6651              1698.3320
 Red. masses --      6.3193                 6.7831                 6.9822
 Frc consts  --     10.5910                11.4099                11.8655
 IR Inten    --      3.3655                 4.7037                 1.2446

                    121                    122                    123
                      A                      A                      A
 Frequencies --   1699.1712              1704.5671              3187.4314
 Red. masses --      7.5668                 7.8472                 1.0867
 Frc consts  --     12.8718                13.4335                 6.5047
 IR Inten    --      0.5916                 0.8294                 1.7663

                    124                    125                    126
                      A                      A                      A
 Frequencies --   3188.1619              3188.7124              3190.4508
 Red. masses --      1.0868                 1.0868                 1.0869
 Frc consts  --      6.5083                 6.5107                 6.5184
 IR Inten    --      1.7069                 0.4667                 1.8095

                    127                    128                    129
                      A                      A                      A
 Frequencies --   3194.1924              3194.3043              3197.2144
 Red. masses --      1.0895                 1.0898                 1.0898
 Frc consts  --      6.5494                 6.5519                 6.5633
 IR Inten    --     13.7768                 0.6307                 7.7947

                    130                    131                    132
                      A                      A                      A
 Frequencies --   3201.6072              3205.8954              3206.8953
 Red. masses --      1.0903                 1.0968                 1.0966
 Frc consts  --      6.5848                 6.6416                 6.6444
 IR Inten    --     12.7635                 2.9115                38.2605

                    133                    134                    135
                      A                      A                      A
 Frequencies --   3207.6483              3218.0836              3227.8417
 Red. masses --      1.0961                 1.0964                 1.0945
 Frc consts  --      6.6445                 6.6900                 6.7190
 IR Inten    --     42.6592                27.5043                 0.8900

                    136                    137                    138
                      A                      A                      A
 Frequencies --   3237.7413              3246.8371              3255.2578
 Red. masses --      1.0936                 1.0902                 1.0910
 Frc consts  --      6.7545                 6.7712                 6.8118
 IR Inten    --      1.9911                18.4012                 4.3402

 - Thermochemistry -
 -------------------
 Temperature   298.150 Kelvin.  Pressure   1.00000 Atm.
 Atom     1 has atomic number  6 and mass  12.00000

 Molecular mass:   400.12520 amu.
 Principal axes and moments of inertia in atomic units:
                           1         2         3
     Eigenvalues --  6307.12524********************
           X            1.00000   0.00145  -0.00007
           Y           -0.00145   1.00000  -0.00172
           Z            0.00006   0.00172   1.00000
 This molecule is an asymmetric top.
 Rotational symmetry number  1.
 Warning -- assumption of classical behavior for rotation
           may cause significant error
 Rotational temperatures (Kelvin)      0.01373     0.00528     0.00388
 Rotational constants (GHZ):           0.28614     0.11005     0.08075
 Zero-point vibrational energy     992338.7 (Joules/Mol)
                                  237.17463 (Kcal/Mol)
 Warning -- explicit consideration of  34 degrees of freedom as
           vibrations may cause significant error
 Vibrational temperatures:     54.50    75.96   131.99   151.95   172.09
          (Kelvin)            190.80   269.35   286.35   318.35   358.99
                              394.66   426.36   439.90   445.64   496.83
                              521.27   554.14   561.16   605.20   620.66
                              637.28   670.14   698.48   712.29   714.98
                              728.48   767.67   783.49   790.91   812.32
                              819.94   823.42   872.29   888.20   902.88
                              927.03   957.10   962.64   984.67   999.54
                             1017.33  1029.11  1044.06  1085.42  1119.43
                             1139.39  1147.56  1150.34  1169.74  1177.57
                             1195.03  1212.57  1222.50  1245.04  1253.14
                             1271.38  1274.78  1280.93  1284.98  1308.09
                             1316.96  1388.58  1409.51  1416.40  1418.81
                             1428.17  1432.42  1435.98  1442.48  1445.68
                             1483.24  1493.63  1515.26  1555.14  1610.67
                             1650.90  1658.80  1696.42  1700.81  1706.57
                             1723.52  1729.06  1742.65  1747.31  1783.36
                             1802.06  1807.05  1815.77  1826.71  1837.59
                             1847.93  1888.63  1934.20  1970.02  1978.42
                             1984.80  2014.37  2021.16  2076.61  2081.09
                             2083.40  2091.77  2099.02  2111.84  2128.94
                             2141.83  2154.20  2167.00  2201.49  2225.63
                             2251.53  2256.05  2288.60  2298.24  2350.54
                             2380.70  2416.68  2426.62  2431.05  2443.52
                             2444.73  2452.49  4586.00  4587.05  4587.84
                             4590.34  4595.72  4595.89  4600.07  4606.39
                             4612.56  4614.00  4615.08  4630.10  4644.14
                             4658.38  4671.47  4683.58

 Zero-point correction=                           0.377962 (Hartree/Particle)
 Thermal correction to Energy=                    0.397172
 Thermal correction to Enthalpy=                  0.398117
 Thermal correction to Gibbs Free Energy=         0.331783
 Sum of electronic and zero-point Energies=          -1228.768682
 Sum of electronic and thermal Energies=             -1228.749472
 Sum of electronic and thermal Enthalpies=           -1228.748528
 Sum of electronic and thermal Free Energies=        -1228.814861

                     E (Thermal)             CV                S
                      KCal/Mol        Cal/Mol-Kelvin    Cal/Mol-Kelvin
 Total                  249.229             85.949            139.610
 Electronic               0.000              0.000              0.000
 Translational            0.889              2.981             43.851
 Rotational               0.889              2.981             36.090
 Vibrational            247.452             79.987             59.669
 Vibration     1          0.594              1.982              5.367
 Vibration     2          0.596              1.976              4.710
 Vibration     3          0.602              1.955              3.623
 Vibration     4          0.605              1.945              3.348
 Vibration     5          0.609              1.933              3.107
 Vibration     6          0.613              1.921              2.908
 Vibration     7          0.632              1.857              2.255
 Vibration     8          0.637              1.841              2.142
 Vibration     9          0.648              1.809              1.949
 Vibration    10          0.662              1.764              1.734
 Vibration    11          0.677              1.721              1.569
 Vibration    12          0.690              1.681              1.438
 Vibration    13          0.696              1.663              1.385
 Vibration    14          0.699              1.655              1.364
 Vibration    15          0.724              1.585              1.187
 Vibration    16          0.736              1.550              1.112
 Vibration    17          0.754              1.502              1.019
 Vibration    18          0.758              1.492              1.000
 Vibration    19          0.783              1.425              0.890
 Vibration    20          0.792              1.402              0.854
 Vibration    21          0.803              1.376              0.817
 Vibration    22          0.823              1.326              0.749
 Vibration    23          0.842              1.282              0.695
 Vibration    24          0.851              1.261              0.671
 Vibration    25          0.852              1.257              0.666
 Vibration    26          0.862              1.236              0.643
 Vibration    27          0.889              1.176              0.579
 Vibration    28          0.900              1.152              0.556
 Vibration    29          0.905              1.140              0.545
 Vibration    30          0.920              1.108              0.515
 Vibration    31          0.926              1.096              0.504
 Vibration    32          0.929              1.091              0.500
 Vibration    33          0.965              1.019              0.439
 Vibration    34          0.977              0.995              0.421

 Normal termination of Gaussian 09 at Sun Jul 28 06:05:55 2019.
