 Gaussian 09, Revision D.01,
 Gaussian 09:  AM64L-G09RevD.01 24-Apr-2013

 ----------------------------------------------------------------------
 #P wB97XD/def2tzvp opt=(tight) freq integral(Grid=ultrafine) # SCF(Max
 Cycle=380) 5d 7f GFPrint
 ----------------------------------------------------------------------

 ---------------------------------------
 The PBEPBE optimization and frequencies
 ---------------------------------------
 Symbolic Z-matrix:
 Charge =  0 Multiplicity = 1

 SCF Done:  E(RwB97XD) =  -40.5192779469     A.U. after   12 cycles
 SCF Done:  E(RwB97XD) =  -40.5192788932     A.U. after    5 cycles
 Optimization completed.
    -- Stationary point found.
 Normal termination of Gaussian 09 at Thu Sep 28 16:37:44 2023.

 ---------------------------------------------------------------------
 #P Geom=AllCheck Guess=TCheck SCRF=Check GenChk RwB97XD/def2TZVP Freq
 ---------------------------------------------------------------------

 Structure from the checkpoint file:  "m1_00_74-82-80_CH4_wB97XD.chk"
 ---------------------------------------
 The PBEPBE optimization and frequencies
 ---------------------------------------
 Charge =  0 Multiplicity = 1

                         Standard orientation:
 ---------------------------------------------------------------------
 Center     Atomic      Atomic             Coordinates (Angstroms)
 Number     Number       Type             X           Y           Z
 ---------------------------------------------------------------------
      1          6           0        0.000000    0.000000    0.000000
      2          1           0        0.628695    0.628695    0.628695
      3          1           0       -0.628695   -0.628695    0.628695
      4          1           0       -0.628695    0.628695   -0.628695
      5          1           0        0.628695   -0.628695   -0.628695
 ---------------------------------------------------------------------

 SCF Done:  E(RwB97XD) =  -40.5192788932     A.U. after    1 cycles

 The electronic state is 1-A1.
 Alpha  occ. eigenvalues --  -10.26293  -0.79169  -0.47687  -0.47687  -0.47687
 Alpha virt. eigenvalues --    0.12902   0.20431   0.20431   0.20431   0.28249
 Alpha virt. eigenvalues --    0.28249   0.28249   0.46888   0.55442   0.55442
 Alpha virt. eigenvalues --    0.55442   0.61356   0.67331   0.67331   1.01196

 Mulliken charges:
               1
     1  C   -0.485948
     2  H    0.121487
     3  H    0.121487
     4  H    0.121487
     5  H    0.121487
 Sum of Mulliken charges =   0.00000

 Dipole moment (field-independent basis, Debye):
    X=              0.0000    Y=              0.0000    Z=              0.0000  Tot=              0.0000
 Quadrupole moment (field-independent basis, Debye-Ang):
   XX=             -8.3775   YY=             -8.3775   ZZ=             -8.3775
   XY=              0.0000   XZ=              0.0000   YZ=              0.0000

  Exact polarizability:  15.020   0.000  15.020   0.000   0.000  15.020
 Approx polarizability:  14.506   0.000  14.506   0.000   0.000  14.506

                      1                      2                      3
                     T2                     T2                     T2
 Frequencies --   1342.6596              1342.6596              1342.6596
 Red. masses --      1.1790                 1.1790                 1.1790
 Frc consts  --      1.2523                 1.2523                 1.2523
 IR Inten    --     16.0804                16.0804                16.0804

                      4                      5                      6
                      E                      E                     A1
 Frequencies --   1560.9676              1560.9676              3045.3564
 Red. masses --      1.0078                 1.0078                 1.0078
 Frc consts  --      1.4468                 1.4468                 5.5070
 IR Inten    --      0.0000                 0.0000                 0.0000

                      7                      8                      9
                     T2                     T2                     T2
 Frequencies --   3165.2767              3165.2767              3165.2767
 Red. masses --      1.1016                 1.1016                 1.1016
 Frc consts  --      6.5029                 6.5029                 6.5029
 IR Inten    --     21.7025                21.7025                21.7025

 - Thermochemistry -
 -------------------
 Temperature   298.150 Kelvin.  Pressure   1.00000 Atm.
 Atom     1 has atomic number  6 and mass  12.00000

 Molecular mass:    16.03130 amu.
 Principal axes and moments of inertia in atomic units:
                           1         2         3
     Eigenvalues --    11.38027  11.38027  11.38027
           X            0.00000   0.00000   1.00000
           Y            1.00000   0.00000   0.00000
           Z            0.00000   1.00000   0.00000
 This molecule is a spherical top.
 Rotational symmetry number 12.
 Rotational temperatures (Kelvin)      7.61087     7.61087     7.61087
 Rotational constants (GHZ):         158.58504   158.58504   158.58504
 Zero-point vibrational energy     117778.9 (Joules/Mol)
                                   28.14984 (Kcal/Mol)
 Vibrational temperatures:   1931.79  1931.79  1931.79  2245.88  2245.88
          (Kelvin)           4381.58  4554.12  4554.12  4554.12

 Zero-point correction=                           0.044860 (Hartree/Particle)
 Thermal correction to Energy=                    0.047728
 Thermal correction to Enthalpy=                  0.048672
 Thermal correction to Gibbs Free Energy=         0.027547
 Sum of electronic and zero-point Energies=            -40.474419
 Sum of electronic and thermal Energies=               -40.471551
 Sum of electronic and thermal Enthalpies=             -40.470607
 Sum of electronic and thermal Free Energies=          -40.491732

                     E (Thermal)             CV                S
                      KCal/Mol        Cal/Mol-Kelvin    Cal/Mol-Kelvin
 Total                   29.950              6.468             44.462
 Electronic               0.000              0.000              0.000
 Translational            0.889              2.981             34.261
 Rotational               0.889              2.981             10.114
 Vibrational             28.172              0.507              0.087

 Optimization completed.
    -- Stationary point found.
 Normal termination of Gaussian 09 at Thu Sep 28 16:37:49 2023.
