 Gaussian 09, Revision D.01,
 Gaussian 09:  AM64L-G09RevD.01 24-Apr-2013

 ----------------------------------------------------------------------
 #P wB97XD/def2tzvp opt=(tight) freq integral(Grid=ultrafine) # SCF(Max
 Cycle=380) 5d 7f GFPrint
 ----------------------------------------------------------------------

 ---------------------------------------
 The PBEPBE optimization and frequencies
 ---------------------------------------
 Symbolic Z-matrix:
 Charge =  0 Multiplicity = 1

 SCF Done:  E(RwB97XD) =  -618.162562753     A.U. after   26 cycles
 SCF Done:  E(RwB97XD) =  -618.162827597     A.U. after   11 cycles
 SCF Done:  E(RwB97XD) =  -618.162841059     A.U. after    8 cycles
 SCF Done:  E(RwB97XD) =  -618.162841829     A.U. after    8 cycles
 SCF Done:  E(RwB97XD) =  -618.162842401     A.U. after    7 cycles
 SCF Done:  E(RwB97XD) =  -618.162842445     A.U. after    5 cycles
 SCF Done:  E(RwB97XD) =  -618.162842448     A.U. after    4 cycles
 Optimization completed.
    -- Stationary point found.
 Normal termination of Gaussian 09 at Fri Jul  9 20:26:13 2021.

 ---------------------------------------------------------------------
 #P Geom=AllCheck Guess=TCheck SCRF=Check GenChk RwB97XD/def2TZVP Freq
 ---------------------------------------------------------------------

 Structure from the checkpoint file:  "m1_00_604-83-1-C16H14_wB97XD.chk"
 ---------------------------------------
 The PBEPBE optimization and frequencies
 ---------------------------------------
 Charge =  0 Multiplicity = 1

                         Standard orientation:
 ---------------------------------------------------------------------
 Center     Atomic      Atomic             Coordinates (Angstroms)
 Number     Number       Type             X           Y           Z
 ---------------------------------------------------------------------
      1          6           0        0.680420    1.610109   -0.000001
      2          6           0        1.507565    2.868904   -0.000003
      3          6           0        1.409639    0.354314   -0.000001
      4          6           0       -0.680420    1.610109    0.000001
      5          6           0        0.725458   -0.877285    0.000000
      6          6           0        2.819225    0.336641   -0.000001
      7          6           0       -1.507565    2.868904    0.000004
      8          6           0       -1.409639    0.354314    0.000001
      9          6           0       -0.725458   -0.877285    0.000000
     10          6           0        1.473650   -2.067709    0.000001
     11          6           0        3.526127   -0.838923    0.000000
     12          6           0       -2.819225    0.336641    0.000001
     13          6           0       -1.473650   -2.067709   -0.000002
     14          6           0        2.845188   -2.056700    0.000001
     15          6           0       -3.526127   -0.838924    0.000000
     16          6           0       -2.845188   -2.056700   -0.000001
     17          1           0        2.154395    2.907743    0.879429
     18          1           0        2.154396    2.907738   -0.879435
     19          1           0        0.909932    3.772982   -0.000006
     20          1           0        3.367689    1.267038   -0.000002
     21          1           0       -2.154396    2.907738    0.879436
     22          1           0       -0.909932    3.772982    0.000007
     23          1           0       -2.154395    2.907743   -0.879429
     24          1           0        0.968704   -3.022729    0.000003
     25          1           0        4.608591   -0.819143    0.000000
     26          1           0       -3.367689    1.267038    0.000002
     27          1           0       -0.968704   -3.022729   -0.000003
     28          1           0        3.394139   -2.989734    0.000002
     29          1           0       -4.608591   -0.819143    0.000000
     30          1           0       -3.394139   -2.989734   -0.000003
 ---------------------------------------------------------------------

 SCF Done:  E(RwB97XD) =  -618.162842448     A.U. after    1 cycles

 The electronic state is 1-A.
 Alpha  occ. eigenvalues --  -10.29705 -10.29703 -10.29669 -10.29632 -10.29535
 Alpha  occ. eigenvalues --  -10.29535 -10.28589 -10.28586 -10.28521 -10.28520
 Alpha  occ. eigenvalues --  -10.28455 -10.28455 -10.28398 -10.28398 -10.27904
 Alpha  occ. eigenvalues --  -10.27903  -0.98957  -0.95412  -0.92600  -0.88177
 Alpha  occ. eigenvalues --   -0.86935  -0.84013  -0.82470  -0.80563  -0.77374
 Alpha  occ. eigenvalues --   -0.72529  -0.69855  -0.69407  -0.67239  -0.62923
 Alpha  occ. eigenvalues --   -0.61077  -0.57628  -0.56374  -0.56139  -0.54050
 Alpha  occ. eigenvalues --   -0.52688  -0.52192  -0.50772  -0.50543  -0.49775
 Alpha  occ. eigenvalues --   -0.49429  -0.48070  -0.47641  -0.46947  -0.45238
 Alpha  occ. eigenvalues --   -0.44948  -0.44132  -0.43767  -0.40696  -0.39705
 Alpha  occ. eigenvalues --   -0.38659  -0.36307  -0.33819  -0.29695  -0.28337
 Alpha virt. eigenvalues --    0.02176   0.02388   0.06446   0.10061   0.11444
 Alpha virt. eigenvalues --    0.12556   0.12992   0.14460   0.14896   0.15440
 Alpha virt. eigenvalues --    0.16600   0.17600   0.18029   0.18925   0.19580

 Mulliken charges:
               1
     1  C    0.055317
     2  C   -0.390736
     3  C    0.053477
     4  C    0.055317
     5  C    0.098777
     6  C   -0.200897
     7  C   -0.390736
     8  C    0.053477
     9  C    0.098777
    10  C   -0.215117
    11  C   -0.138750
    12  C   -0.200897
    13  C   -0.215117
    14  C   -0.093481
    15  C   -0.138750
    16  C   -0.093481
    17  H    0.137394
    18  H    0.137394
    19  H    0.102886
    20  H    0.130666
    21  H    0.137394
    22  H    0.102886
    23  H    0.137394
    24  H    0.097628
    25  H    0.112604
    26  H    0.130666
    27  H    0.097628
    28  H    0.112840
    29  H    0.112604
    30  H    0.112840
 Sum of Mulliken charges =   0.00000

 Dipole moment (field-independent basis, Debye):
    X=              0.0000    Y=              0.6241    Z=              0.0000  Tot=              0.6241
 Quadrupole moment (field-independent basis, Debye-Ang):
   XX=            -84.3663   YY=            -82.7665   ZZ=           -100.0561
   XY=              0.0000   XZ=              0.0000   YZ=              0.0000

  Exact polarizability: 263.348   0.000 205.406   0.000   0.000  95.221
 Approx polarizability: 283.875   0.000 237.769   0.000   0.000 126.825

                      1                      2                      3
                      A                      A                      A
 Frequencies --     43.4657                82.4333               109.9654
 Red. masses --      2.9946                 3.3922                 2.2797
 Frc consts  --      0.0033                 0.0136                 0.0162
 IR Inten    --      0.0000                 0.1385                 0.0000

                      4                      5                      6
                      A                      A                      A
 Frequencies --    143.5690               209.3154               212.3379
 Red. masses --      3.8179                 1.1958                 1.0877
 Frc consts  --      0.0464                 0.0309                 0.0289
 IR Inten    --      4.1713                 0.0000                 0.5156

                      7                      8                      9
                      A                      A                      A
 Frequencies --    272.1537               274.9050               330.2565
 Red. masses --      4.7453                 3.9091                 3.1147
 Frc consts  --      0.2071                 0.1741                 0.2002
 IR Inten    --      0.3693                 0.0000                 0.8456

                     10                     11                     12
                      A                      A                      A
 Frequencies --    356.8720               418.1767               425.5936
 Red. masses --      3.3249                 5.5669                 6.5233
 Frc consts  --      0.2495                 0.5736                 0.6962
 IR Inten    --      0.5451                 0.5977                 1.1825

                     13                     14                     15
                      A                      A                      A
 Frequencies --    435.5350               447.5272               451.5128
 Red. masses --      2.8068                 3.0074                 3.2828
 Frc consts  --      0.3137                 0.3549                 0.3943
 IR Inten    --      0.4493                 0.0000                 3.7720

                     16                     17                     18
                      A                      A                      A
 Frequencies --    481.0270               555.8267               573.8137
 Red. masses --      5.5538                 3.3831                 3.6167
 Frc consts  --      0.7571                 0.6158                 0.7016
 IR Inten    --      0.9772                 2.6937                 0.0000

                     19                     20                     21
                      A                      A                      A
 Frequencies --    578.0091               616.7859               639.0453
 Red. masses --      3.0707                 4.8593                 6.7534
 Frc consts  --      0.6044                 1.0892                 1.6249
 IR Inten    --      0.0000                 0.0007                 4.1419

                     22                     23                     24
                      A                      A                      A
 Frequencies --    640.8131               697.7111               752.9466
 Red. masses --      2.9365                 5.5152                 2.0578
 Frc consts  --      0.7105                 1.5818                 0.6874
 IR Inten    --      0.0000                 0.4602                54.3674

                     25                     26                     27
                      A                      A                      A
 Frequencies --    779.1374               781.3613               794.2496
 Red. masses --      1.5801                 1.8224                 5.1580
 Frc consts  --      0.5651                 0.6555                 1.9171
 IR Inten    --      0.0000                74.5281                 0.4139

                     28                     29                     30
                      A                      A                      A
 Frequencies --    818.3298               819.9717               884.7868
 Red. masses --      1.9558                 3.1108                 1.4010
 Frc consts  --      0.7717                 1.2323                 0.6462
 IR Inten    --      0.0000                 2.7317                 0.1235

                     31                     32                     33
                      A                      A                      A
 Frequencies --    887.2962               957.2887               960.8732
 Red. masses --      2.4010                 2.3827                 1.3707
 Frc consts  --      1.1137                 1.2865                 0.7456
 IR Inten    --      0.0000                 0.4468                 0.0000

                     34                     35                     36
                      A                      A                      A
 Frequencies --    974.7066               991.2354               994.6929
 Red. masses --      1.3421                 1.2820                 1.2636
 Frc consts  --      0.7512                 0.7421                 0.7366
 IR Inten    --      0.4044                 0.0000                 0.0006

                     37                     38                     39
                      A                      A                      A
 Frequencies --   1031.4957              1046.8615              1064.0906
 Red. masses --      7.3758                 1.4602                 2.3012
 Frc consts  --      4.6237                 0.9428                 1.5352
 IR Inten    --      2.7290                 0.0006                 3.6702

                     40                     41                     42
                      A                      A                      A
 Frequencies --   1073.9734              1074.7875              1106.0981
 Red. masses --      1.6346                 2.2012                 2.1649
 Frc consts  --      1.1108                 1.4982                 1.5605
 IR Inten    --      0.0000                18.4440                 0.7415

                     43                     44                     45
                      A                      A                      A
 Frequencies --   1107.0172              1121.3262              1148.4377
 Red. masses --      1.9674                 2.4730                 2.3580
 Frc consts  --      1.4205                 1.8321                 1.8323
 IR Inten    --      0.6478                 0.1054                 0.1520

                     46                     47                     48
                      A                      A                      A
 Frequencies --   1196.5582              1208.7185              1224.3610
 Red. masses --      1.1906                 1.6454                 1.3342
 Frc consts  --      1.0044                 1.4164                 1.1784
 IR Inten    --      0.0817                 0.9568                 1.0793

                     49                     50                     51
                      A                      A                      A
 Frequencies --   1246.5290              1296.3342              1336.9948
 Red. masses --      2.0169                 1.6043                 1.6942
 Frc consts  --      1.8464                 1.5884                 1.7843
 IR Inten    --      0.8015                 8.0550                 0.3555

                     52                     53                     54
                      A                      A                      A
 Frequencies --   1354.7647              1360.3985              1396.1051
 Red. masses --      3.1813                 4.9312                 3.4567
 Frc consts  --      3.4402                 5.3769                 3.9696
 IR Inten    --      1.9395                 2.2477                 0.3861

                     55                     56                     57
                      A                      A                      A
 Frequencies --   1401.4442              1427.4884              1433.5376
 Red. masses --      1.7229                 2.3866                 1.2139
 Frc consts  --      1.9937                 2.8654                 1.4698
 IR Inten    --      0.2866                 0.7306                 1.4445

                     58                     59                     60
                      A                      A                      A
 Frequencies --   1493.0886              1493.9030              1494.6000
 Red. masses --      1.9352                 1.4996                 1.0411
 Frc consts  --      2.5418                 1.9718                 1.3703
 IR Inten    --     17.0782                 9.0313                 0.0000

                     61                     62                     63
                      A                      A                      A
 Frequencies --   1501.6768              1503.5992              1506.0403
 Red. masses --      1.4998                 2.4402                 1.0416
 Frc consts  --      1.9927                 3.2504                 1.3920
 IR Inten    --      0.3590                 0.0452                15.7011

                     64                     65                     66
                      A                      A                      A
 Frequencies --   1526.5509              1556.9100              1605.0866
 Red. masses --      1.3019                 2.4298                 3.3266
 Frc consts  --      1.7875                 3.4702                 5.0496
 IR Inten    --     10.0005                23.2197                 0.0002

                     67                     68                     69
                      A                      A                      A
 Frequencies --   1654.0063              1681.0387              1689.8504
 Red. masses --      7.3520                 5.7948                 5.8071
 Frc consts  --     11.8503                 9.6481                 9.7703
 IR Inten    --      0.6668                 7.5101                 2.0762

                     70                     71                     72
                      A                      A                      A
 Frequencies --   1695.2063              3054.7792              3058.1515
 Red. masses --      6.2858                 1.0430                 1.0456
 Frc consts  --     10.6428                 5.7343                 5.7614
 IR Inten    --      4.5336                35.2161                17.7533

                     73                     74                     75
                      A                      A                      A
 Frequencies --   3108.0326              3108.3301              3180.9471
 Red. masses --      1.1003                 1.1003                 1.0968
 Frc consts  --      6.2623                 6.2634                 6.5388
 IR Inten    --      0.0000                25.4531                 4.8378

                     76                     77                     78
                      A                      A                      A
 Frequencies --   3196.1742              3197.1147              3208.0851
 Red. masses --      1.0863                 1.0869                 1.0886
 Frc consts  --      6.5381                 6.5456                 6.6012
 IR Inten    --      0.9786                 1.9753                36.0695

                     79                     80                     81
                      A                      A                      A
 Frequencies --   3210.3061              3213.3527              3226.2636
 Red. masses --      1.0913                 1.0930                 1.0957
 Frc consts  --      6.6264                 6.6492                 6.7198
 IR Inten    --     23.0814                 6.1484                 1.3520

                     82                     83                     84
                      A                      A                      A
 Frequencies --   3240.9303              3241.4190              3245.5463
 Red. masses --      1.0911                 1.0922                 1.0906
 Frc consts  --      6.7523                 6.7613                 6.7685
 IR Inten    --     12.8023                17.1807                11.0265

 - Thermochemistry -
 -------------------
 Temperature   298.150 Kelvin.  Pressure   1.00000 Atm.
 Atom     1 has atomic number  6 and mass  12.00000

 Molecular mass:   206.10955 amu.
 Principal axes and moments of inertia in atomic units:
                           1         2         3
     Eigenvalues --  2184.018533484.712775646.46348
           X            1.00000   0.00000   0.00000
           Y            0.00000   1.00000   0.00000
           Z            0.00000   0.00000   1.00000
 This molecule is an asymmetric top.
 Rotational symmetry number  1.
 Warning -- assumption of classical behavior for rotation
           may cause significant error
 Rotational temperatures (Kelvin)      0.03966     0.02486     0.01534
 Rotational constants (GHZ):           0.82634     0.51790     0.31962
 Zero-point vibrational energy     663579.6 (Joules/Mol)
                                  158.59932 (Kcal/Mol)
 Warning -- explicit consideration of  20 degrees of freedom as
           vibrations may cause significant error
 Vibrational temperatures:     62.54   118.60   158.22   206.56   301.16
          (Kelvin)            305.51   391.57   395.53   475.16   513.46
                              601.66   612.33   626.64   643.89   649.63
                              692.09   799.71   825.59   831.63   887.42
                              919.44   921.99  1003.85  1083.32  1121.00
                             1124.20  1142.75  1177.39  1179.75  1273.01
                             1276.62  1377.32  1382.48  1402.38  1426.16
                             1431.14  1484.09  1506.20  1530.99  1545.21
                             1546.38  1591.43  1592.75  1613.34  1652.34
                             1721.58  1739.07  1761.58  1793.47  1865.13
                             1923.63  1949.20  1957.31  2008.68  2016.36
                             2053.83  2062.54  2148.22  2149.39  2150.39
                             2160.58  2163.34  2166.85  2196.36  2240.04
                             2309.36  2379.74  2418.64  2431.31  2439.02
                             4395.14  4399.99  4471.76  4472.19  4576.67
                             4598.58  4599.93  4615.71  4618.91  4623.29
                             4641.87  4662.97  4663.67  4669.61

 Zero-point correction=                           0.252744 (Hartree/Particle)
 Thermal correction to Energy=                    0.265219
 Thermal correction to Enthalpy=                  0.266163
 Thermal correction to Gibbs Free Energy=         0.214066
 Sum of electronic and zero-point Energies=           -617.910098
 Sum of electronic and thermal Energies=              -617.897624
 Sum of electronic and thermal Enthalpies=            -617.896680
 Sum of electronic and thermal Free Energies=         -617.948776

                     E (Thermal)             CV                S
                      KCal/Mol        Cal/Mol-Kelvin    Cal/Mol-Kelvin
 Total                  166.427             51.494            109.647
 Electronic               0.000              0.000              0.000
 Translational            0.889              2.981             41.874
 Rotational               0.889              2.981             32.130
 Vibrational            164.650             45.532             35.643
 Vibration     1          0.595              1.980              5.095
 Vibration     2          0.600              1.961              3.832
 Vibration     3          0.606              1.941              3.270
 Vibration     4          0.616              1.910              2.756
 Vibration     5          0.642              1.827              2.050
 Vibration     6          0.643              1.822              2.023
 Vibration     7          0.675              1.725              1.582
 Vibration     8          0.677              1.720              1.565
 Vibration     9          0.713              1.615              1.259
 Vibration    10          0.732              1.561              1.136
 Vibration    11          0.781              1.431              0.898
 Vibration    12          0.787              1.415              0.873
 Vibration    13          0.796              1.393              0.841
 Vibration    14          0.807              1.366              0.803
 Vibration    15          0.810              1.358              0.791
 Vibration    16          0.837              1.292              0.707
 Vibration    17          0.911              1.127              0.532
 Vibration    18          0.930              1.088              0.497
 Vibration    19          0.935              1.079              0.489
 Vibration    20          0.976              0.996              0.422

 Optimization completed.
    -- Stationary point found.
 Normal termination of Gaussian 09 at Fri Jul  9 21:55:41 2021.
