 Gaussian 09, Revision D.01,
 Gaussian 09:  AM64L-G09RevD.01 24-Apr-2013

 ----------------------------------------------------------------------
 #P wB97XD/def2tzvp opt=(tight) freq integral(Grid=ultrafine) # SCF(Max
 Cycle=380) 5d 7f GFPrint
 ----------------------------------------------------------------------

 ---------------------------------------
 The PBEPBE optimization and frequencies
 ---------------------------------------
 Symbolic Z-matrix:
 Charge =  0 Multiplicity = 1

 SCF Done:  E(RwB97XD) =  -157.230232953     A.U. after   11 cycles
 SCF Done:  E(RwB97XD) =  -157.230251898     A.U. after    8 cycles
 SCF Done:  E(RwB97XD) =  -157.230252751     A.U. after    6 cycles
 SCF Done:  E(RwB97XD) =  -157.230252792     A.U. after    5 cycles
 Optimization completed.
    -- Stationary point found.

 1\1\GINC-CN506-02-L\FOpt\RwB97XD\def2TZVP\C4H8\MINENKY\09-Jul-2021\0\\
 #P wB97XD/def2tzvp opt=(tight) freq integral(Grid=ultrafine) # SCF(Max
 Cycle=380) 5d 7f GFPrint\\The PBEPBE optimization and frequencies\\0,1
 \C,-0.3231495479,0.5784470197,0.\C,0.3231495479,-0.5784470197,0.\H,-1.
 4113912206,0.5670861561,0.\H,1.4113912206,-0.5670861561,0.\C,0.3238252
 32,1.9265959491,0.\C,-0.323825232,-1.9265959491,0.\H,1.4117973389,1.84
 57887095,0.\H,0.0248955685,2.5054919298,0.8778785859\H,0.0248955685,2.
 5054919298,-0.8778785859\H,-1.4117973389,-1.8457887095,0.\H,-0.0248955

 Normal termination of Gaussian 09 at Fri Jul  9 19:22:03 2021.

 ---------------------------------------------------------------------
 #P Geom=AllCheck Guess=TCheck SCRF=Check GenChk RwB97XD/def2TZVP Freq
 ---------------------------------------------------------------------

 Structure from the checkpoint file:  "m1_00_624-64-60_C4H8_wB97XD.chk"
 ---------------------------------------
 The PBEPBE optimization and frequencies
 ---------------------------------------
 Charge =  0 Multiplicity = 1

                         Standard orientation:
 ---------------------------------------------------------------------
 Center     Atomic      Atomic             Coordinates (Angstroms)
 Number     Number       Type             X           Y           Z
 ---------------------------------------------------------------------
      1          6           0       -0.323306    0.578360    0.000000
      2          6           0        0.323306   -0.578360    0.000000
      3          1           0       -1.411544    0.566705    0.000000
      4          1           0        1.411544   -0.566705    0.000000
      5          6           0        0.323306    1.926683    0.000000
      6          6           0       -0.323306   -1.926683    0.000000
      7          1           0        1.411299    1.846169    0.000000
      8          1           0        0.024220    2.505499    0.877879
      9          1           0        0.024220    2.505499   -0.877879
     10          1           0       -1.411299   -1.846169    0.000000
     11          1           0       -0.024220   -2.505499    0.877879
     12          1           0       -0.024220   -2.505499   -0.877879
 ---------------------------------------------------------------------

 SCF Done:  E(RwB97XD) =  -157.230252792     A.U. after    1 cycles

 The electronic state is 1-AG.
 Alpha  occ. eigenvalues --  -10.27658 -10.27563 -10.27355 -10.27355  -0.89800
 Alpha  occ. eigenvalues --   -0.82564  -0.73766  -0.63697  -0.53063  -0.52763
 Alpha  occ. eigenvalues --   -0.50288  -0.48678  -0.45554  -0.44250  -0.41960
 Alpha  occ. eigenvalues --   -0.32206
 Alpha virt. eigenvalues --    0.09492   0.12968   0.13615   0.14871   0.18674
 Alpha virt. eigenvalues --    0.18754   0.20173   0.20829   0.21151   0.24104
 Alpha virt. eigenvalues --    0.26166   0.28618   0.29914   0.30628   0.32998

 Mulliken charges:
               1
     1  C   -0.139460
     2  C   -0.139460
     3  H    0.105825
     4  H    0.105825
     5  C   -0.307640
     6  C   -0.307640
     7  H    0.108353
     8  H    0.116461
     9  H    0.116461
    10  H    0.108353
    11  H    0.116461
    12  H    0.116461
 Sum of Mulliken charges =   0.00000

 Dipole moment (field-independent basis, Debye):
    X=              0.0000    Y=              0.0000    Z=              0.0000  Tot=              0.0000
 Quadrupole moment (field-independent basis, Debye-Ang):
   XX=            -25.5794   YY=            -25.3746   ZZ=            -28.0069
   XY=             -0.3792   XZ=              0.0000   YZ=              0.0000

  Exact polarizability:  45.775  -2.531  67.243   0.000   0.000  38.125
 Approx polarizability:  50.343  -5.965  62.104   0.000   0.000  42.585

                      1                      2                      3
                     AU                     BG                     AU
 Frequencies --    176.2360               227.6450               248.4382
 Red. masses --      1.0640                 1.2575                 2.1475
 Frc consts  --      0.0195                 0.0384                 0.0781
 IR Inten    --      1.2213                 0.0000                 3.9728

                      4                      5                      6
                     BU                     AG                     BG
 Frequencies --    289.6383               510.8867               771.6517
 Red. masses --      2.3480                 2.7728                 1.2825
 Frc consts  --      0.1161                 0.4264                 0.4499
 IR Inten    --      1.1213                 0.0000                 0.0000

                      7                      8                      9
                     AG                     BU                     AU
 Frequencies --    886.2057               995.7859              1009.8646
 Red. masses --      1.7133                 1.2351                 1.0545
 Frc consts  --      0.7928                 0.7216                 0.6336
 IR Inten    --      0.0000                14.2672                38.8934

                     10                     11                     12
                     AU                     BG                     BU
 Frequencies --   1074.0294              1083.0519              1090.9710
 Red. masses --      1.4451                 1.6476                 3.2632
 Frc consts  --      0.9821                 1.1387                 2.2883
 IR Inten    --      2.4327                 0.0000                 3.7408

                     13                     14                     15
                     AG                     BU                     AG
 Frequencies --   1176.8429              1338.6730              1345.4217
 Red. masses --      1.9810                 1.2749                 1.2602
 Frc consts  --      1.6165                 1.3460                 1.3440
 IR Inten    --      0.0000                 3.5350                 0.0000

                     16                     17                     18
                     BU                     AG                     AU
 Frequencies --   1420.5710              1421.4419              1483.9162
 Red. masses --      1.2911                 1.2635                 1.0428
 Frc consts  --      1.5351                 1.5041                 1.3529
 IR Inten    --      5.2079                 0.0000                15.7820

                     19                     20                     21
                     BG                     AG                     BU
 Frequencies --   1484.4059              1494.1167              1502.0720
 Red. masses --      1.0439                 1.0554                 1.0454
 Frc consts  --      1.3552                 1.3882                 1.3896
 IR Inten    --      0.0000                 0.0000                22.6933

                     22                     23                     24
                     AG                     BU                     AG
 Frequencies --   1774.6034              3040.7817              3041.2993
 Red. masses --      6.0313                 1.0365                 1.0363
 Frc consts  --     11.1909                 5.6468                 5.6474
 IR Inten    --      0.0000                63.6809                 0.0000

                     25                     26                     27
                     AU                     BG                     BU
 Frequencies --   3098.1291              3098.5409              3123.5099
 Red. masses --      1.1001                 1.1001                 1.0987
 Frc consts  --      6.2213                 6.2232                 6.3158
 IR Inten    --     38.3069                 0.0000                15.8621

                     28                     29                     30
                     AG                     AG                     BU
 Frequencies --   3124.3803              3142.4714              3148.1449
 Red. masses --      1.0983                 1.0952                 1.0888
 Frc consts  --      6.3168                 6.3719                 6.3577
 IR Inten    --      0.0000                 0.0000                68.3732

 - Thermochemistry -
 -------------------
 Temperature   298.150 Kelvin.  Pressure   1.00000 Atm.
 Atom     1 has atomic number  6 and mass  12.00000

 Molecular mass:    56.06260 amu.
 Principal axes and moments of inertia in atomic units:
                           1         2         3
     Eigenvalues --    51.50297 481.32343 510.63719
           X            0.12006   0.99277   0.00000
           Y            0.99277  -0.12006   0.00000
           Z            0.00000   0.00000   1.00000
 This molecule is an asymmetric top.
 Rotational symmetry number  2.
 Rotational temperatures (Kelvin)      1.68172     0.17995     0.16962
 Rotational constants (GHZ):          35.04150     3.74954     3.53429
 Zero-point vibrational energy     284853.1 (Joules/Mol)
                                   68.08153 (Kcal/Mol)
 Warning -- explicit consideration of   5 degrees of freedom as
           vibrations may cause significant error
 Vibrational temperatures:    253.56   327.53   357.45   416.72   735.05
          (Kelvin)           1110.23  1275.05  1432.71  1452.97  1545.29
                             1558.27  1569.66  1693.21  1926.05  1935.76
                             2043.88  2045.14  2135.02  2135.73  2149.70
                             2161.14  2553.26  4375.00  4375.75  4457.51
                             4458.10  4494.03  4495.28  4521.31  4529.47

 Zero-point correction=                           0.108495 (Hartree/Particle)
 Thermal correction to Energy=                    0.113953
 Thermal correction to Enthalpy=                  0.114897
 Thermal correction to Gibbs Free Energy=         0.081769
 Sum of electronic and zero-point Energies=           -157.121758
 Sum of electronic and thermal Energies=              -157.116300
 Sum of electronic and thermal Enthalpies=            -157.115356
 Sum of electronic and thermal Free Energies=         -157.148484

                     E (Thermal)             CV                S
                      KCal/Mol        Cal/Mol-Kelvin    Cal/Mol-Kelvin
 Total                   71.506             18.181             69.724
 Electronic               0.000              0.000              0.000
 Translational            0.889              2.981             37.993
 Rotational               0.889              2.981             22.675
 Vibrational             69.729             12.219              9.056
 Vibration     1          0.628              1.872              2.368
 Vibration     2          0.651              1.799              1.897
 Vibration     3          0.662              1.765              1.742
 Vibration     4          0.686              1.693              1.476
 Vibration     5          0.866              1.226              0.631

 Optimization completed.
    -- Stationary point found.

 1\1\GINC-CN506-02-L\Freq\RwB97XD\def2TZVP\C4H8\MINENKY\09-Jul-2021\0\\
 #P Geom=AllCheck Guess=TCheck SCRF=Check GenChk RwB97XD/def2TZVP Freq\
 \The PBEPBE optimization and frequencies\\0,1\C,-0.3231495479,0.578447
 0197,0.\C,0.3231495479,-0.5784470197,0.\H,-1.4113912206,0.5670861561,0
 .\H,1.4113912206,-0.5670861561,0.\C,0.323825232,1.9265959491,0.\C,-0.3
 23825232,-1.9265959491,0.\H,1.4117973389,1.8457887095,0.\H,0.024895568
 5,2.5054919298,0.8778785859\H,0.0248955685,2.5054919298,-0.8778785859\
 H,-1.4117973389,-1.8457887095,0.\H,-0.0248955685,-2.5054919298,0.87787

 Normal termination of Gaussian 09 at Fri Jul  9 19:23:21 2021.
